----- GAMESS execution script 'rungms' -----
This job is running on host Lyudmilas-MacBook-Pro.local
under operating system Darwin at Sat Dec 10 15:44:04 EST 2022
Available scratch disk space (Kbyte units) at beginning of the job is
Filesystem   1024-blocks      Used Available Capacity iused      ifree %iused  Mounted on
/dev/disk1s2   976797816 819624432 126586452    87% 4520222 9763457938    0%   /System/Volumes/Data
GAMESS temporary binary files will be written to /Users/lyuda/gmsscr
GAMESS supplementary output files will be written to /Users/lyuda/scr
Copying input file makefp.inp to your run's scratch directory...
cp makefp.inp /Users/lyuda/gmsscr/makefp.F05
unset echo
/Users/lyuda/GAMESS/gamess_dec.2019/ddikick.x /Users/lyuda/GAMESS/gamess_dec.2019/gamess.00.x makefp -ddi 1 1 localhost -scr /Users/lyuda/gmsscr

 Distributed Data Interface kickoff program.
 Initiating 1 compute processes on 1 nodes to run the following command:
 /Users/lyuda/GAMESS/gamess_dec.2019/gamess.00.x makefp 

          ******************************************************
          *         GAMESS VERSION = 30 SEP 2018 (R3)         *
          *             FROM IOWA STATE UNIVERSITY             *
          * M.W.SCHMIDT, K.K.BALDRIDGE, J.A.BOATZ, S.T.ELBERT, *
          *   M.S.GORDON, J.H.JENSEN, S.KOSEKI, N.MATSUNAGA,   *
          *          K.A.NGUYEN, S.J.SU, T.L.WINDUS,           *
          *       TOGETHER WITH M.DUPUIS, J.A.MONTGOMERY       *
          *         J.COMPUT.CHEM.  14, 1347-1363(1993)        *
          **************** 64 BIT APPLE VERSION ****************

  SINCE 1993, STUDENTS AND POSTDOCS WORKING AT IOWA STATE UNIVERSITY
  AND ALSO IN THEIR VARIOUS JOBS AFTER LEAVING ISU HAVE MADE IMPORTANT
  CONTRIBUTIONS TO THE CODE:
     IVANA ADAMOVIC, CHRISTINE AIKENS, YURI ALEXEEV, POOJA ARORA,
     ANDREY ASADCHEV, ROB BELL, PRADIPTA BANDYOPADHYAY, JONATHAN BENTZ,
     BRETT BODE, KURT BRORSEN, CALEB CARLIN, GALINA CHABAN, WEI CHEN,
     CHEOL HO CHOI, PAUL DAY, ALBERT DEFUSCO, NUWAN DESILVA, TIM DUDLEY,
     DMITRI FEDOROV, ALEX FINDLATER, GRAHAM FLETCHER, MARK FREITAG,
     KURT GLAESEMANN, ANASTASIA GUNINA,
     DAN KEMP, GRANT MERRILL, NORIYUKI MINEZAWA, JONATHAN MULLIN,
     TAKESHI NAGATA, SEAN NEDD, HEATHER NETZLOFF, BOSILJKA NJEGIC, RYAN OLSON,
     MIKE PAK, BUU PHAM,
     SPENCER PRUITT, LUKE ROSKOP, JIM SHOEMAKER, LYUDMILA SLIPCHENKO,
     TONY SMITH, SAROM SOK LEANG, JIE SONG, TETSUYA TAKETSUGU, SIMON WEBB,
     PENG XU, SOOHAENG YOO, FEDERICO ZAHARIEV

  ADDITIONAL CODE HAS BEEN PROVIDED BY COLLABORATORS IN OTHER GROUPS:
     IOWA STATE UNIVERSITY:
          JOE IVANIC, AARON WEST, LAIMUTIS BYTAUTAS, KLAUS RUEDENBERG
     UNIVERSITY OF TOKYO: KIMIHIKO HIRAO, TAKAHITO NAKAJIMA,
          TAKAO TSUNEDA, MUNEAKI KAMIYA, SUSUMU YANAGISAWA,
          KIYOSHI YAGI, MAHITO CHIBA, SEIKEN TOKURA, NAOAKI KAWAKAMI
     UNIVERSITY OF AARHUS: FRANK JENSEN
     UNIVERSITY OF IOWA: VISVALDAS KAIRYS, HUI LI
     NATIONAL INST. OF STANDARDS AND TECHNOLOGY: WALT STEVENS, DAVID GARMER
     UNIVERSITY OF PISA: BENEDETTA MENNUCCI, JACOPO TOMASI
     UNIVERSITY OF MEMPHIS: HENRY KURTZ, PRAKASHAN KORAMBATH
     UNIVERSITY OF ALBERTA: TOBY ZENG, MARIUSZ KLOBUKOWSKI
     UNIVERSITY OF NEW ENGLAND: MARK SPACKMAN
     MIE UNIVERSITY: HIROAKI UMEDA
     NAT. INST. OF ADVANCED INDUSTRIAL SCIENCE AND TECHNOLOGY: KAZUO KITAURA
     MICHIGAN STATE UNIVERSITY:
          KAROL KOWALSKI, MARTA WLOCH, JEFFREY GOUR, JESSE LUTZ,
          WEI LI, JUN SHEN, J. EMILIANO DEUSTUA, PIOTR PIECUCH
     UNIVERSITY OF MINNESOTA:
          YINAN SHU
     UNIVERSITY OF SILESIA: MONIKA MUSIAL, STANISLAW KUCHARSKI
     FACULTES UNIVERSITAIRES NOTRE-DAME DE LA PAIX:
          OLIVIER QUINET, BENOIT CHAMPAGNE
     UNIVERSITY OF CALIFORNIA - SANTA BARBARA: BERNARD KIRTMAN
     INSTITUTE FOR MOLECULAR SCIENCE:
          KAZUYA ISHIMURA, MICHIO KATOUDA, AND SHIGERU NAGASE
     UNIVERSITY OF NOTRE DAME: ANNA POMOGAEVA, DAN CHIPMAN
     KYUSHU UNIVERSITY:
          HARUYUKI NAKANO,
          FENG LONG GU, JACEK KORCHOWIEC, MARCIN MAKOWSKI, AND YURIKO AOKI,
          HIROTOSHI MORI AND EISAKU MIYOSHI
     PENNSYLVANIA STATE UNIVERSITY:
          TZVETELIN IORDANOV, CHET SWALINA, JONATHAN SKONE,
          SHARON HAMMES-SCHIFFER
     WASEDA UNIVERSITY:
          MASATO KOBAYASHI, TOMOKO AKAMA, TSUGUKI TOUMA,
          TAKESHI YOSHIKAWA, YASUHIRO IKABATA, JUNJI SEINO,
          YUYA NAKAJIMA, HIROMI NAKAI
     NANJING UNIVERSITY: SHUHUA LI
     UNIVERSITY OF NEBRASKA:
          PEIFENG SU, DEJUN SI, NANDUN THELLAMUREGE, YALI WANG, HUI LI
     UNIVERSITY OF ZURICH: ROBERTO PEVERATI, KIM BALDRIDGE
     N. COPERNICUS UNIVERSITY AND JACKSON STATE UNIVERSITY:
          MARIA BARYSZ
     UNIVERSITY OF COPENHAGEN: Jimmy Kromann, CASPER STEINMANN
     TOKYO INSTITUTE OF TECHNOLOGY: HIROYA NAKATA
     NAGOYA UNIVERSITY: YOSHIO NISHIMOTO, STEPHAN IRLE
     MOSCOW STATE UNIVERSITY: VLADIMIR MIRONOV
     A.N.NESMEYANOV INSTITUTE OF ORGANOELEMENT COMPOUNDS OF RUSSIAN ACADEMY OF SCIENCES:
          IGOR S. GERASIMOV

 EXECUTION OF GAMESS BEGUN Sat Dec 10 15:44:05 2022

            ECHO OF THE FIRST FEW INPUT CARDS -
 INPUT CARD> $contrl units=angs local=boys runtyp=makefp coord=cart icut=11 $end            
 INPUT CARD> $system timlim=99999  mwords=200 $end                                          
 INPUT CARD> $scf dirscf=.t. soscf=.f. diis=.t. conv=1.0d-06  $end                          
 INPUT CARD> $basis gbasis=n31 ngauss=6 ndfunc=1 diffsp=.t. $end                            
 INPUT CARD> $damp ifttyp(1)=2,0 iftfix(1)=1,1 thrsh=500.0 $end                             
 INPUT CARD> $makefp chtr=.f. disp7=.f. $end                                                
 INPUT CARD>                                                                                
 INPUT CARD> $data                                                                          
 INPUT CARD>comment line                                                                    
 INPUT CARD>C1                                                                              
 INPUT CARD>N  7  1.08099635  1.08099635  1.08099635                                        
 INPUT CARD>H  1  1.89264145  1.37035655  0.59462495                                        
 INPUT CARD>H  1  1.37035655  0.59462495  1.89264145                                        
 INPUT CARD>H  1  0.59462495  1.89264145  1.37035655                                        
 INPUT CARD> $end                                                                           
 INPUT CARD>                                                                                
  200000000 WORDS OF MEMORY AVAILABLE


                    * * * WARNING * * *
 OLD KEYWORD COORD=CART SELECTED, AUTOMATICALLY CHANGED TO COORD=PRINAXIS.
 YOUR MOLECULE'S COORDINATES WILL BE CHANGED TO PRINCIPAL AXES BY
   A) TRANSLATION TO THE CENTER OF MASS, THEN
   B) ROTATION TO HAVE A DIAGONAL MOMENT OF INERTIA TENSOR.

 HOWEVER, NOTHING ELSE IN YOUR INPUT WILL BE ROTATED IN THE SAME WAY,
 SO IF YOU HAVE A $VEC, $VIB, $GRAD, $HESS, EFP PARTICLE COORDINATES,
 OR ANYTHING ELSE THAT DEPENDS ON THE INITIAL ORIENTATION, THAT DATA
 WILL NOT BE USED CORRECTLY IN THIS RUN.

 THE PURPOSE OF COORD=PRINAXIS IS TO BE USED ONCE, ONLY AT THE VERY
 BEGINNING OF A SERIES OF COMPUTATIONS, PERHAPS TO FIND THE SYMMETRY
 UNIQUE ATOMS FROM AN ARBITRARY INITIAL ORIENTATION.

 AFTER THE FIRST RUN, YOU SHOULD USE ONLY COORD=UNIQUE, TO ENSURE THAT
 THE COORDINATES WHICH YOU READ IN ARE THE COORDINATES THAT ARE USED.


     BASIS OPTIONS
     -------------
     GBASIS=N31          IGAUSS=       6      POLAR=POPN31  
     NDFUNC=       1     NFFUNC=       0     DIFFSP=       T
     NPFUNC=       0      DIFFS=       F     BASNAM=        


     RUN TITLE
     ---------
 comment line                                                                    

 THE POINT GROUP OF THE MOLECULE IS C1      
 THE ORDER OF THE PRINCIPAL AXIS IS     0

 THE MOMENTS OF INERTIA ARE (AMU-ANGSTROM**2)
 IXX=     1.603   IYY=     1.603   IZZ=     2.579

 ATOM      ATOMIC                      COORDINATES (BOHR)
           CHARGE         X                   Y                   Z
 N           7.0     0.0000000000        0.0000000000       -0.1190788329
 H           1.0    -1.5998498006        0.6978969618        0.5515075313
 H           1.0     1.4043213984        1.0365620887        0.5515075313
 H           1.0     0.1955284022       -1.7344590505        0.5515075313

          INTERNUCLEAR DISTANCES (ANGS.)
          ------------------------------

                1 N          2 H          3 H          4 H     

   1 N       0.0000000    0.9894717 *  0.9894717 *  0.9894717 *
   2 H       0.9894717 *  0.0000000    1.5998087 *  1.5998087 *
   3 H       0.9894717 *  1.5998087 *  0.0000000    1.5998087 *
   4 H       0.9894717 *  1.5998087 *  1.5998087 *  0.0000000  

  * ... LESS THAN  3.000


     ATOMIC BASIS SET
     ----------------
 THE CONTRACTED PRIMITIVE FUNCTIONS HAVE BEEN UNNORMALIZED
 THE CONTRACTED BASIS FUNCTIONS ARE NOW NORMALIZED TO UNITY

  SHELL TYPE  PRIMITIVE        EXPONENT          CONTRACTION COEFFICIENT(S)

 N         

      1   S       1          4173.5114600    0.001834772160
      1   S       2           627.4579110    0.013994627002
      1   S       3           142.9020930    0.068586551812
      1   S       4            40.2343293    0.232240873040
      1   S       5            12.8202129    0.469069948082
      1   S       6             4.3904370    0.360455199063

      2   L       7            11.6263619   -0.114961181702    0.067579743878
      2   L       8             2.7162798   -0.169117478561    0.323907295893
      2   L       9             0.7722184    1.145851947027    0.740895139755

      3   L      10             0.2120315    1.000000000000    1.000000000000

      4   L      11             0.0639000    1.000000000000    1.000000000000

      5   D      12             0.8000000    1.000000000000

 H         

      6   S      13            18.7311370    0.033494604338
      6   S      14             2.8253944    0.234726953484
      6   S      15             0.6401217    0.813757326146

      7   S      16             0.1612778    1.000000000000

 H         

      8   S      17            18.7311370    0.033494604338
      8   S      18             2.8253944    0.234726953484
      8   S      19             0.6401217    0.813757326146

      9   S      20             0.1612778    1.000000000000

 H         

     10   S      21            18.7311370    0.033494604338
     10   S      22             2.8253944    0.234726953484
     10   S      23             0.6401217    0.813757326146

     11   S      24             0.1612778    1.000000000000

 TOTAL NUMBER OF BASIS SET SHELLS             =   11
 NUMBER OF CARTESIAN GAUSSIAN BASIS FUNCTIONS =   25
 NUMBER OF ELECTRONS                          =   10
 CHARGE OF MOLECULE                           =    0
 SPIN MULTIPLICITY                            =    1
 NUMBER OF OCCUPIED ORBITALS (ALPHA)          =    5
 NUMBER OF OCCUPIED ORBITALS (BETA )          =    5
 TOTAL NUMBER OF ATOMS                        =    4
 THE NUCLEAR REPULSION ENERGY IS       12.2232912669

     $CONTRL OPTIONS
     ---------------
 SCFTYP=RHF          RUNTYP=MAKEFP       EXETYP=RUN     
 MPLEVL=       0     CITYP =NONE         CCTYP =NONE         VBTYP =NONE    
 DFTTYP=NONE         TDDFT =NONE    
 MULT  =       1     ICHARG=       0     NZVAR =       0     COORD =PRINAXIS
 PP    =NONE         RELWFN=NONE         LOCAL =BOYS         NUMGRD=       F
 ISPHER=      -1     NOSYM =       0     MAXIT =      30     UNITS =ANGS    
 PLTORB=       F     MOLPLT=       F     AIMPAC=       F     FRIEND=        
 NPRINT=       7     IREST =       0     GEOM  =INPUT   
 NORMF =       0     NORMP =       0     ITOL  =      20     ICUT  =      11
 INTTYP=BEST         GRDTYP=BEST         QMTTOL= 1.0E-06

     $SYSTEM OPTIONS
     ---------------
  REPLICATED MEMORY=   200000000 WORDS (ON EVERY NODE).
 DISTRIBUTED MEMDDI=           0 MILLION WORDS IN AGGREGATE,
 MEMDDI DISTRIBUTED OVER   1 PROCESSORS IS           0 WORDS/PROCESSOR.
 TOTAL MEMORY REQUESTED ON EACH PROCESSOR=   200000000 WORDS.
 TIMLIM=       99999.00 MINUTES, OR      69.4 DAYS.
 PARALL= F  BALTYP=  DLB     KDIAG=    0  COREFL= F
 MXSEQ2=     300 MXSEQ3=     150  mem10=         0

     INPUT FOR POTENTIAL-DERIVED CHARGES 
     -----------------------------------
     VDWSCL=    0.00   RMAX=    3.00   DELR=    0.80
     VDWINC=    0.10 PTDENS=    0.28
     LAYER =      25  NFREQ=      30 MAXPDC=  100000
     CONSTR=CHARGE    UNITS=ANGS      PTSEL=GEODESIC
     CENTER=  0.0000  0.0000  0.0000
     DPOLE =  0.0000  0.0000  0.0000
     QPOLE =  0.0000  0.0000  0.0000  0.0000  0.0000  0.0000


          ----------------
          PROPERTIES INPUT
          ----------------

     MOMENTS            FIELD           POTENTIAL          DENSITY
 IEMOM =       1   IEFLD =       0   IEPOT =       0   IEDEN =       0
 WHERE =COMASS     WHERE =NUCLEI     WHERE =NUCLEI     WHERE =NUCLEI  
 OUTPUT=BOTH       OUTPUT=BOTH       OUTPUT=BOTH       OUTPUT=BOTH    
 IEMINT=       0   IEFINT=       0                     IEDINT=       0
                                                       MORB  =       0
          EXTRAPOLATION IN EFFECT
          DIIS IN EFFECT
 ORBITAL PRINTING OPTION: NPREO=     1    25     2     1

     -------------------------------
     INTEGRAL TRANSFORMATION OPTIONS
     -------------------------------
     NWORD  =            0
     CUTOFF = 1.0E-09     MPTRAN =       0
     DIRTRF =       T     AOINTS =DUP     

          -----------------------------
          LOCALIZATION INPUT PARAMETERS
          -----------------------------
           LOCAL=BOYS          NOUTA=       1
          PRTLOC=       F      NOUTB=       0
          MAXLOC=     250     CVGLOC=1.00E-06
           FCORE=       T     SYMLOC=       F
          MOIDON=       F     EDCOMP=       F
          DIPDCM=       F      NPROT=       0
          QADDCM=       F     DEPRNT=       F
          POLNUM=       F     ORIENT=       F
          POLDYN=       T      VMTOL=1.50E-01
          NPRDTL=       2     IBOYAL=       1
          MOOUTA =      1

          ----------------------
          INTEGRAL INPUT OPTIONS
          ----------------------
 NOPK  =       1 NORDER=       0 SCHWRZ=       T

     ------------------------------------------
     THE POINT GROUP IS C1 , NAXIS= 0, ORDER= 1
     ------------------------------------------

     DIMENSIONS OF THE SYMMETRY SUBSPACES ARE
 A   =   25

 ..... DONE SETTING UP THE RUN .....
 STEP CPU TIME =     0.01 TOTAL CPU TIME =          0.0 (      0.0 MIN)
 TOTAL WALL CLOCK TIME=          0.0 SECONDS, CPU UTILIZATION IS    25.00%

          --------------
          MAKEFP OPTIONS
          --------------
          FRAG=FRAGNAME
          SCREEN= T    POL   = T    EXREP = T
          DISP  = T    CHTR  = F    CTVVO =

          ********************
          1 ELECTRON INTEGRALS
          ********************
 ...... END OF ONE-ELECTRON INTEGRALS ......
 STEP CPU TIME =     0.00 TOTAL CPU TIME =          0.0 (      0.0 MIN)
 TOTAL WALL CLOCK TIME=          0.1 SECONDS, CPU UTILIZATION IS    20.00%

          -------------
          GUESS OPTIONS
          -------------
          GUESS =HUCKEL            NORB  =       0          NORDER=       0
          MIX   =       F          PRTMO =       F          PUNMO =       F
          TOLZ  = 1.0E-08          TOLE  = 1.0E-05
          SYMDEN=       F          PURIFY=       F

 INITIAL GUESS ORBITALS GENERATED BY HUCKEL   ROUTINE.
 HUCKEL GUESS REQUIRES      7745 WORDS.

 SYMMETRIES FOR INITIAL GUESS ORBITALS FOLLOW.   BOTH SET(S).
     5 ORBITALS ARE OCCUPIED (    1 CORE ORBITALS).
     2=A        3=A        4=A        5=A        6=A        7=A        8=A   
     9=A       10=A       11=A       12=A       13=A       14=A       15=A   
 ...... END OF INITIAL ORBITAL SELECTION ......
 STEP CPU TIME =     0.01 TOTAL CPU TIME =          0.0 (      0.0 MIN)
 TOTAL WALL CLOCK TIME=          0.1 SECONDS, CPU UTILIZATION IS    33.33%

                    ----------------------
                    AO INTEGRAL TECHNOLOGY
                    ----------------------
     S,P,L SHELL ROTATED AXIS INTEGRALS, REPROGRAMMED BY
        KAZUYA ISHIMURA (IMS) AND JOSE SIERRA (SYNSTAR).
     S,P,D,L SHELL ROTATED AXIS INTEGRALS PROGRAMMED BY
        KAZUYA ISHIMURA (INSTITUTE FOR MOLECULAR SCIENCE).
     S,P,D,F,G SHELL TO TOTAL QUARTET ANGULAR MOMENTUM SUM 5,
        ERIC PROGRAM BY GRAHAM FLETCHER (ELORET AND NASA ADVANCED
        SUPERCOMPUTING DIVISION, AMES RESEARCH CENTER).
     S,P,D,F,G,L SHELL GENERAL RYS QUADRATURE PROGRAMMED BY
        MICHEL DUPUIS (PACIFIC NORTHWEST NATIONAL LABORATORY).

          --------------------
          2 ELECTRON INTEGRALS
          --------------------

 DIRECT SCF METHOD SKIPS INTEGRAL STORAGE ON DISK.
 DIRECT TRANSFORMATION SKIPS AO INTEGRAL STORAGE ON DISK.
  ...... END OF TWO-ELECTRON INTEGRALS .....
 STEP CPU TIME =     0.02 TOTAL CPU TIME =          0.0 (      0.0 MIN)
 TOTAL WALL CLOCK TIME=          0.1 SECONDS, CPU UTILIZATION IS    57.14%

          --------------------------
                 RHF SCF CALCULATION
          --------------------------

     NUCLEAR ENERGY =        12.2232912669
     MAXIT =   30     NPUNCH=    2
     EXTRAP=T  DAMP=F  SHIFT=F  RSTRCT=F  DIIS=T  DEM=F  SOSCF=F
     DENSITY MATRIX CONV=  2.00E-06
     MEMORY REQUIRED FOR RHF ITERS=     50918 WORDS.

 DIRECT SCF CALCULATION, SCHWRZ=T   FDIFF=T,  DIRTHR=  0.00E+00 NITDIR=10
 SCHWARZ INEQUALITY OVERHEAD:       325 INTEGRALS, T=        0.00

                                                                                   NONZERO     BLOCKS
 ITER EX DEM     TOTAL ENERGY        E CHANGE  DENSITY CHANGE    DIIS ERROR      INTEGRALS    SKIPPED
   1  0  0      -55.9952498913   -55.9952498913   0.161003960   0.573709256          37693          0
          * * *   INITIATING DIIS PROCEDURE   * * *
   2  1  0      -56.1750663415    -0.1798164502   0.089319251   0.073935326          37693          0
   3  2  0      -56.1869503112    -0.0118839698   0.025357475   0.022375080          37693          0
   4  3  0      -56.1887465147    -0.0017962034   0.018099177   0.015048222          37693          0
   5  4  0      -56.1890037925    -0.0002572778   0.003836680   0.003473840          37693          0
   6  5  0      -56.1890336681    -0.0000298756   0.001443180   0.000720364          37693          0
   7  6  0      -56.1890356658    -0.0000019977   0.000232995   0.000105494          37693          0
   8  7  0      -56.1890357038    -0.0000000380   0.000091645   0.000024454          37693          0
   9  8  0      -56.1890357071    -0.0000000033   0.000011538   0.000003255          37693          0
  10  9  0      -56.1890357071    -0.0000000001   0.000001387   0.000000318          37693          0
  11 10  0      -56.1890357071    -0.0000000000   0.000000064   0.000000031          37693          0

          -----------------
          DENSITY CONVERGED
          -----------------
     TIME TO FORM FOCK OPERATORS=       0.0 SECONDS (       0.0 SEC/ITER)
     FOCK TIME ON FIRST ITERATION=       0.0, LAST ITERATION=       0.0
     TIME TO SOLVE SCF EQUATIONS=       0.0 SECONDS (       0.0 SEC/ITER)

 FINAL RHF ENERGY IS      -56.1890357071 AFTER  11 ITERATIONS

          ------------
          EIGENVECTORS
          ------------

                      1          2          3          4          5
                  -15.5434    -1.1560    -0.6443    -0.6443    -0.4249
                     A          A          A          A          A   
    1  N  1  S    0.994919  -0.198526  -0.000000  -0.000000   0.057737
    2  N  1  S    0.024980   0.411570  -0.000000  -0.000000  -0.147768
    3  N  1  X    0.000000   0.000000  -0.255596   0.405314  -0.000000
    4  N  1  Y    0.000000   0.000000   0.405314   0.255596  -0.000000
    5  N  1  Z    0.001444   0.087370  -0.000000  -0.000000   0.555477
    6  N  1  S   -0.001627   0.444403  -0.000000  -0.000000  -0.189264
    7  N  1  X    0.000000   0.000000  -0.148170   0.234962  -0.000000
    8  N  1  Y    0.000000   0.000000   0.234962   0.148170  -0.000000
    9  N  1  Z   -0.001011   0.054668  -0.000000  -0.000000   0.459074
   10  N  1  S   -0.000478   0.044025  -0.000000  -0.000000   0.032233
   11  N  1  X    0.000000   0.000000  -0.002453   0.003890  -0.000000
   12  N  1  Y    0.000000   0.000000   0.003890   0.002453  -0.000000
   13  N  1  Z    0.000051   0.007529  -0.000000  -0.000000   0.104528
   14  N  1 XX   -0.003581   0.015170   0.021055   0.004838  -0.013134
   15  N  1 YY   -0.003581   0.015170  -0.021055  -0.004838  -0.013134
   16  N  1 ZZ   -0.003440  -0.001758  -0.000000  -0.000000   0.026267
   17  N  1 XY    0.000000   0.000000  -0.005586   0.024312  -0.000000
   18  N  1 XZ    0.000000   0.000000  -0.020402   0.032352  -0.000000
   19  N  1 YZ    0.000000   0.000000   0.032352   0.020402  -0.000000
   20  H  2  S    0.000197   0.140602   0.230098  -0.156350   0.064481
   21  H  2  S    0.000805  -0.016878   0.122673  -0.083355   0.002871
   22  H  3  S    0.000197   0.140602   0.020354   0.277446   0.064481
   23  H  3  S    0.000805  -0.016878   0.010851   0.147915   0.002871
   24  H  4  S    0.000197   0.140602  -0.250452  -0.121096   0.064481
   25  H  4  S    0.000805  -0.016878  -0.133524  -0.064560   0.002871

                      6          7          8          9         10
                    0.1145     0.1688     0.1688     0.2043     0.3602
                     A          A          A          A          A   
    1  N  1  S    0.062876  -0.000000  -0.000000  -0.052360  -0.000000
    2  N  1  S   -0.105782  -0.000000  -0.000000   0.045571  -0.000000
    3  N  1  X   -0.000000  -0.096233  -0.098623  -0.000000  -0.149390
    4  N  1  Y   -0.000000  -0.098623   0.096233  -0.000000  -0.236411
    5  N  1  Z   -0.117321  -0.000000  -0.000000  -0.160922  -0.000000
    6  N  1  S   -0.443226  -0.000000  -0.000000   0.678499  -0.000000
    7  N  1  X   -0.000000  -0.192487  -0.197267  -0.000000  -0.646575
    8  N  1  Y   -0.000000  -0.197267   0.192487  -0.000000  -1.023212
    9  N  1  Z   -0.054199  -0.000000  -0.000000  -0.429576  -0.000000
   10  N  1  S    1.954871  -0.000000  -0.000000  -0.396840  -0.000000
   11  N  1  X   -0.000000   0.963793   0.987722  -0.000000  -0.348345
   12  N  1  Y   -0.000000   0.987722  -0.963793  -0.000000  -0.551260
   13  N  1  Z    0.574475  -0.000000  -0.000000   1.179722  -0.000000
   14  N  1 XX    0.008742  -0.006511   0.013112  -0.022207   0.008914
   15  N  1 YY    0.008742   0.006511  -0.013112  -0.022207  -0.008914
   16  N  1 ZZ    0.012519  -0.000000  -0.000000  -0.033421  -0.000000
   17  N  1 XY   -0.000000  -0.015140  -0.007518  -0.000000   0.012980
   18  N  1 XZ   -0.000000  -0.011659  -0.011949  -0.000000  -0.003611
   19  N  1 YZ   -0.000000  -0.011949   0.011659  -0.000000  -0.005715
   20  H  2  S    0.020373   0.005047   0.013335  -0.013782  -0.017488
   21  H  2  S   -0.429778   0.159478   0.421392  -0.171453  -0.338267
   22  H  3  S    0.020373  -0.014071  -0.002297  -0.013782   0.107478
   23  H  3  S   -0.429778  -0.444675  -0.072584  -0.171453   2.078878
   24  H  4  S    0.020373   0.009025  -0.011038  -0.013782  -0.089989
   25  H  4  S   -0.429778   0.285197  -0.348808  -0.171453  -1.740611

                     11         12         13         14         15
                    0.3602     0.4031     1.0671     1.0671     1.1468
                     A          A          A          A          A   
    1  N  1  S   -0.000000  -0.118079  -0.000000  -0.000000  -0.025777
    2  N  1  S   -0.000000   0.077124  -0.000000  -0.000000   0.011264
    3  N  1  X    0.236411   0.000000  -0.635824  -0.210586  -0.000000
    4  N  1  Y   -0.149390   0.000000   0.210586  -0.635824  -0.000000
    5  N  1  Z   -0.000000   0.152323  -0.000000  -0.000000  -1.008584
    6  N  1  S   -0.000000   2.527153  -0.000000  -0.000000   0.462232
    7  N  1  X    1.023212   0.000000   1.396489   0.462518  -0.000000
    8  N  1  Y   -0.646575   0.000000  -0.462518   1.396489  -0.000000
    9  N  1  Z   -0.000000   0.779603  -0.000000  -0.000000   1.571564
   10  N  1  S   -0.000000   2.562283  -0.000000  -0.000000   0.315390
   11  N  1  X    0.551260   0.000000  -0.700916  -0.232144  -0.000000
   12  N  1  Y   -0.348345   0.000000   0.232144  -0.700916  -0.000000
   13  N  1  Z   -0.000000   0.480588  -0.000000  -0.000000  -0.544340
   14  N  1 XX    0.011241  -0.044181   0.073365  -0.095195  -0.015828
   15  N  1 YY   -0.011241  -0.044181  -0.073365   0.095195  -0.015828
   16  N  1 ZZ   -0.000000  -0.013541  -0.000000  -0.000000   0.061504
   17  N  1 XY   -0.010294   0.000000  -0.109922  -0.084715  -0.000000
   18  N  1 XZ    0.005715   0.000000  -0.075392  -0.024970  -0.000000
   19  N  1 YZ   -0.003611   0.000000   0.024970  -0.075392  -0.000000
   20  H  2  S    0.114008  -0.076638   0.620929  -0.056981  -0.153838
   21  H  2  S    2.205183  -2.077924  -0.407671   0.037411  -0.257084
   22  H  3  S   -0.041858  -0.076638  -0.359811  -0.509250  -0.153838
   23  H  3  S   -0.809644  -2.077924   0.236234   0.334348  -0.257084
   24  H  4  S   -0.072149  -0.076638  -0.261118   0.566231  -0.153838
   25  H  4  S   -1.395539  -2.077924   0.171437  -0.371758  -0.257084

                     16         17         18         19         20
                    1.2600     1.2600     1.3634     1.4110     1.9500
                     A          A          A          A          A   
    1  N  1  S    0.000000  -0.000000  -0.095872   0.026416   0.000000
    2  N  1  S    0.000000  -0.000000  -1.439493  -1.020169   0.000000
    3  N  1  X   -0.803637  -0.336809  -0.000000  -0.000000  -0.011323
    4  N  1  Y    0.336809  -0.803637  -0.000000  -0.000000  -0.018764
    5  N  1  Z    0.000000  -0.000000   0.080936  -0.313869   0.000000
    6  N  1  S    0.000000  -0.000000   3.893722   2.558704   0.000000
    7  N  1  X    0.911703   0.382101  -0.000000  -0.000000  -0.019552
    8  N  1  Y   -0.382101   0.911703  -0.000000  -0.000000  -0.032400
    9  N  1  Z    0.000000  -0.000000   0.408978   0.392983   0.000000
   10  N  1  S    0.000000  -0.000000  -0.336596   1.393226   0.000000
   11  N  1  X    0.339117   0.142126  -0.000000  -0.000000   0.011884
   12  N  1  Y   -0.142126   0.339117  -0.000000  -0.000000   0.019694
   13  N  1  Z    0.000000  -0.000000   0.120233   0.402196   0.000000
   14  N  1 XX   -0.112813   0.125140  -0.409120  -0.054845  -0.338238
   15  N  1 YY    0.112813  -0.125140  -0.409120  -0.054845   0.338238
   16  N  1 ZZ    0.000000  -0.000000  -0.051162  -0.327994   0.000000
   17  N  1 XY    0.144499   0.130265  -0.000000  -0.000000  -0.472184
   18  N  1 XZ    0.106920   0.044811  -0.000000  -0.000000   0.407722
   19  N  1 YZ   -0.044811   0.106920  -0.000000  -0.000000   0.675656
   20  H  2  S   -0.759133   0.010988  -0.415111   0.679577  -0.005725
   21  H  2  S    1.705047  -0.024679  -0.540207  -1.591667   0.003547
   22  H  3  S    0.389082   0.651934  -0.415111   0.679577   0.040317
   23  H  3  S   -0.873896  -1.464274  -0.540207  -1.591667  -0.024982
   24  H  4  S    0.370051  -0.662922  -0.415111   0.679577  -0.034592
   25  H  4  S   -0.831151   1.488953  -0.540207  -1.591667   0.021435

                     21         22         23         24         25
                    1.9500     2.2934     2.8430     2.8430     4.1614
                     A          A          A          A          A   
    1  N  1  S    0.000000  -0.061760   0.000000   0.000000  -0.475209
    2  N  1  S    0.000000  -0.393550   0.000000   0.000000   1.134571
    3  N  1  X   -0.018764   0.000000  -0.050429   0.091257  -0.000000
    4  N  1  Y    0.011323   0.000000  -0.091257  -0.050429  -0.000000
    5  N  1  Z    0.000000   0.037381   0.000000   0.000000  -0.067044
    6  N  1  S    0.000000   1.540519   0.000000   0.000000   3.515490
    7  N  1  X   -0.032400   0.000000  -0.366950   0.664029  -0.000000
    8  N  1  Y    0.019552   0.000000  -0.664029  -0.366950  -0.000000
    9  N  1  Z    0.000000   0.459852   0.000000   0.000000   0.229168
   10  N  1  S    0.000000  -0.022287   0.000000   0.000000   0.213379
   11  N  1  X    0.019694   0.000000   0.142363  -0.257618  -0.000000
   12  N  1  Y   -0.011884   0.000000   0.257618   0.142363  -0.000000
   13  N  1  Z    0.000000  -0.038167   0.000000   0.000000   0.210595
   14  N  1 XX    0.408923   0.448152  -0.554092  -0.620180  -1.542152
   15  N  1 YY   -0.408923   0.448152   0.554092   0.620180  -1.542152
   16  N  1 ZZ    0.000000  -1.074834   0.000000   0.000000  -1.548458
   17  N  1 XY   -0.390564   0.000000  -0.716123   0.639811  -0.000000
   18  N  1 XZ    0.675656   0.000000  -0.363846   0.658413  -0.000000
   19  N  1 YZ   -0.407722   0.000000  -0.658413  -0.363846  -0.000000
   20  H  2  S   -0.043249  -0.526391  -0.101563   1.083010   0.199703
   21  H  2  S    0.026799  -0.179698   0.030393  -0.324097  -0.773882
   22  H  3  S    0.016666  -0.526391   0.988695  -0.453549   0.199703
   23  H  3  S   -0.010327  -0.179698  -0.295873   0.135727  -0.773882
   24  H  4  S    0.026582  -0.526391  -0.887133  -0.629461   0.199703
   25  H  4  S   -0.016472  -0.179698   0.265479   0.188370  -0.773882
 ...... END OF RHF CALCULATION ......
 STEP CPU TIME =     0.06 TOTAL CPU TIME =          0.1 (      0.0 MIN)
 TOTAL WALL CLOCK TIME=          0.2 SECONDS, CPU UTILIZATION IS    66.67%

     ----------------------------------------------------------------
     PROPERTY VALUES FOR THE RHF   SELF-CONSISTENT FIELD WAVEFUNCTION
     ----------------------------------------------------------------

          -----------------
          ENERGY COMPONENTS
          -----------------

         WAVEFUNCTION NORMALIZATION =       1.0000000000

                ONE ELECTRON ENERGY =     -99.9988533192
                TWO ELECTRON ENERGY =      31.5865263451
           NUCLEAR REPULSION ENERGY =      12.2232912669
                                      ------------------
                       TOTAL ENERGY =     -56.1890357071

 ELECTRON-ELECTRON POTENTIAL ENERGY =      31.5865263451
  NUCLEUS-ELECTRON POTENTIAL ENERGY =    -156.1284853572
   NUCLEUS-NUCLEUS POTENTIAL ENERGY =      12.2232912669
                                      ------------------
             TOTAL POTENTIAL ENERGY =    -112.3186677451
               TOTAL KINETIC ENERGY =      56.1296320379
                 VIRIAL RATIO (V/T) =       2.0010583299

          ---------------------------------------
          MULLIKEN AND LOWDIN POPULATION ANALYSES
          ---------------------------------------

     ATOMIC MULLIKEN POPULATION IN EACH MOLECULAR ORBITAL

                      1          2          3          4          5

                  2.000000   2.000000   2.000000   2.000000   2.000000

    1             1.999525   1.668159   1.263694   1.263694   1.948269
    2             0.000158   0.110614   0.335819   0.155052   0.017244
    3             0.000158   0.110614   0.002628   0.488243   0.017244
    4             0.000158   0.110614   0.397859   0.093012   0.017244

               ----- POPULATIONS IN EACH AO -----
                             MULLIKEN      LOWDIN
              1  N  1  S      1.99542     1.97906
              2  N  1  S      0.76865     0.51577
              3  N  1  X      0.76477     0.70352
              4  N  1  Y      0.76477     0.70323
              5  N  1  Z      0.95752     0.92588
              6  N  1  S      0.88885     0.38768
              7  N  1  X      0.47605     0.50996
              8  N  1  Y      0.47605     0.50926
              9  N  1  Z      0.80565     0.76126
             10  N  1  S      0.05076     0.08438
             11  N  1  X      0.00439     0.07217
             12  N  1  Y      0.00439     0.07213
             13  N  1  Z      0.10994     0.16264
             14  N  1 XX      0.02862     0.19278
             15  N  1 YY      0.02862     0.19278
             16  N  1 ZZ     -0.01027     0.14325
             17  N  1 XY      0.00781     0.01257
             18  N  1 XZ      0.01066     0.01279
             19  N  1 YZ      0.01066     0.01274
             20  H  2  S      0.51147     0.45889
             21  H  2  S      0.10742     0.22309
             22  H  3  S      0.51147     0.45809
             23  H  3  S      0.10742     0.22305
             24  H  4  S      0.51147     0.45992
             25  H  4  S      0.10742     0.22314

          ----- MULLIKEN ATOMIC OVERLAP POPULATIONS -----
          (OFF-DIAGONAL ELEMENTS NEED TO BE MULTIPLIED BY 2)

             1           2           3           4

    1    7.1602065
    2    0.3277117   0.3500975
    3    0.3277117  -0.0294615   0.3500975
    4    0.3277117  -0.0294615  -0.0294615   0.3500975

          TOTAL MULLIKEN AND LOWDIN ATOMIC POPULATIONS
       ATOM         MULL.POP.    CHARGE          LOW.POP.     CHARGE
    1 N             8.143342   -1.143342         7.953831   -0.953831
    2 H             0.618886    0.381114         0.681974    0.318026
    3 H             0.618886    0.381114         0.681139    0.318861
    4 H             0.618886    0.381114         0.683057    0.316943

          -------------------------------
          BOND ORDER AND VALENCE ANALYSIS     BOND ORDER THRESHOLD=0.050
          -------------------------------

                   BOND                       BOND                       BOND
  ATOM PAIR DIST  ORDER      ATOM PAIR DIST  ORDER      ATOM PAIR DIST  ORDER
    1   2  0.989  0.825        1   3  0.989  0.825        1   4  0.989  0.825

                       TOTAL       BONDED        FREE
      ATOM            VALENCE     VALENCE     VALENCE
    1 N                 2.475       2.475      -0.000
    2 H                 0.811       0.811       0.000
    3 H                 0.811       0.811      -0.000
    4 H                 0.811       0.811      -0.000

          ---------------------
          ELECTROSTATIC MOMENTS
          ---------------------

 POINT   1           X           Y           Z (BOHR)    CHARGE
                 0.000000   -0.000000   -0.000000        0.00 (A.U.)
         DX          DY          DZ         /D/  (DEBYE)
     0.000000   -0.000000    1.876576    1.876576

          ----------------------------------
          DENSITY BASED MULTIPOLAR EXPANSION
          ----------------------------------
                13216 GRID POINTS ARE USED
 TOTAL NUMBER OF ELECTRONS =                   10
 TOTAL CHARGE OBTAINED FROM GRID INTEGRAL =  9.89655
 A SCALING FACTOR OF 1.01045 IS APPLIED
 THE EXPANSION POINTS ARE PUNCHED OUT IN THE DAT FILE
  
 ...... END OF PROPERTY EVALUATION ......
 STEP CPU TIME =     0.37 TOTAL CPU TIME =          0.5 (      0.0 MIN)
 TOTAL WALL CLOCK TIME=          0.5 SECONDS, CPU UTILIZATION IS    90.38%

 RUNTYP=MAKEFP IS NOW GENERATING DISTRIBUTED MULTIPOLES FOR ELECTOSTATICS


 PROCESSING $STONE INPUT...
 THE NUMBER OF "BOUNDARY" CORE MOS IS  0
 THE NUMBER OF MOS WITH ZERO OCCUPATION NUMBER IS  0
 TOTAL ELECTRON CHARGE =    -10.0000000000

          ---------------------------------------------
          DISTRIBUTED MULTIPOLAR ANALYSIS (A. J. STONE)
          ---------------------------------------------

 NET CHARGES AT POINTS                    COORDINATES
 ---------------------                    -----------
    #   NAME        CHARGE          X           Y           Z
    1   ZN          7.00000      0.00000     0.00000    -0.11908
    2   ZH          1.00000     -1.59985     0.69790     0.55151
    3   ZH          1.00000      1.40432     1.03656     0.55151
    4   ZH          1.00000      0.19553    -1.73446     0.55151
    5   N          -7.32432      0.00000     0.00000    -0.11908
    6   H          -0.66879     -1.59985     0.69790     0.55151
    7   H          -0.66879      1.40432     1.03656     0.55151
    8   H          -0.66879      0.19553    -1.73446     0.55151
    9   BO21       -0.22311     -0.79992     0.34895     0.21621
   10   BO31       -0.22311      0.70216     0.51828     0.21621
   11   BO41       -0.22311      0.09776    -0.86723     0.21621

 THE DISTRIBUTED MULTIPOLE ANALYSIS IS FOR THE -ELECTRONIC- PART ONLY
 OF THE FOLLOWING MOMENTS.  ALL QUANTITIES ARE IN ATOMIC UNITS


 FIRST MOMENTS AT POINTS
 -----------------------
 NAME               X             Y             Z
 N             -0.00000       0.00000       0.27364
 H             -0.04993       0.02178       0.01139
 H              0.04383       0.03235       0.01139
 H              0.00610      -0.05413       0.01139
 BO21           0.17368      -0.07576      -0.00381
 BO31          -0.15245      -0.11253      -0.00381
 BO41          -0.02123       0.18829      -0.00381

 SECOND MOMENTS AT POINTS
 ------------------------
 NAME           XX         YY         ZZ         XY         XZ         YZ
 N          -4.36968   -4.36968   -5.85370   -0.00000    0.00000   -0.00000
 H          -0.34436   -0.34861   -0.34623   -0.00229   -0.00517    0.00225
 H          -0.34556   -0.34740   -0.34623    0.00299    0.00453    0.00335
 H          -0.34953   -0.34344   -0.34623   -0.00070    0.00063   -0.00560
 BO21       -0.05993   -0.07991   -0.09525   -0.01076   -0.00631    0.00275
 BO31       -0.06559   -0.07424   -0.09525    0.01403    0.00554    0.00409
 BO41       -0.08423   -0.05560   -0.09525   -0.00327    0.00077   -0.00684

 THIRD MOMENTS AT POINTS
 -----------------------
 NAME           XXX        YYY        ZZZ        XXY        XXZ        XYY
                YYZ        XZZ        YZZ        XYZ
 N           0.02309    0.06594    0.42694   -0.06594    0.11702   -0.02309
             0.11702    0.00000   -0.00000    0.00000
 H          -0.06370    0.03188    0.01270    0.00589   -0.00121   -0.02289
             0.00358   -0.02218    0.00968    0.00258
 H           0.05825    0.04563    0.01270    0.01047    0.00014    0.01776
             0.00222    0.01947    0.01437   -0.00337
 H           0.00918   -0.06685    0.01270   -0.02702    0.00462    0.00140
            -0.00225    0.00271   -0.02405    0.00078
 BO21        0.59919   -0.26312    0.03294   -0.08570    0.01215    0.20043
             0.01492    0.19711   -0.08598    0.00150
 BO31       -0.52695   -0.39007    0.03294   -0.12802    0.01294   -0.17495
             0.01414   -0.17302   -0.12771   -0.00195
 BO41       -0.07382    0.64868    0.03294    0.21823    0.01553   -0.02391
             0.01155   -0.02409    0.21369    0.00045
 STEP CPU TIME =     0.00 TOTAL CPU TIME =          0.5 (      0.0 MIN)
 TOTAL WALL CLOCK TIME=          0.5 SECONDS, CPU UTILIZATION IS    88.68%

 RUNTYP=MAKEFP IS NOW GENERATING LOCALIZED ORBITALS
               AND DISTRIBUTED POLARIZABILITY TENSORS
               AND DATA FOR DISPERSION.


          -------------------------
          BOYS ORBITAL LOCALIZATION
          -------------------------
          S.F.BOYS, IN "QUANTUM THEORY OF ATOMS, MOLECULES, AND SOLIDS"
          P.O.LOWDIN, ED. ACADEMIC PRESS, NY, 1966 PP253-266.

          THIS LOCALIZATION REQUIRES      1800 WORDS OF MEMORY.
          THIS LOCALIZATION HAS    5 ORBITALS, OF WHICH   1 ARE FROZEN.

          THE INITIAL LOCALIZATION SUM IS      3.380532 DEBYE**2
          BOYS ITERATION  10 ORBITAL CHANGE=    7.2579540461E-08
          LOCALIZATION CONVERGED IN  13 ITERATIONS
            THE FINAL LOCALIZATION SUM IS     27.435587 DEBYE**2

          THE BOYS LOCALIZED ORBITALS ARE

                      1          2          3          4          5

    1  N  1  S    0.994919  -0.097188  -0.097188   0.097188  -0.120040
    2  N  1  S    0.024980   0.196133   0.196133  -0.196133   0.275356
    3  N  1  X    0.000000  -0.358610   0.043828  -0.314781   0.000000
    4  N  1  Y    0.000000   0.156435  -0.388782  -0.232347   0.000000
    5  N  1  Z    0.001444   0.153490   0.153490  -0.153490  -0.495490
    6  N  1  S   -0.001627   0.206117   0.206117  -0.206117   0.325364
    7  N  1  X    0.000000  -0.207888   0.025407  -0.182480   0.000000
    8  N  1  Y    0.000000   0.090686  -0.225379  -0.134693   0.000000
    9  N  1  Z   -0.001011   0.117293   0.117293  -0.117293  -0.415288
   10  N  1  S   -0.000478   0.030136   0.030136  -0.030136  -0.015891
   11  N  1  X    0.000000  -0.003441   0.000421  -0.003021   0.000000
   12  N  1  Y    0.000000   0.001501  -0.003731  -0.002230   0.000000
   13  N  1  Z    0.000051   0.024027   0.024027  -0.024027  -0.096182
   14  N  1 XX   -0.003581   0.017763  -0.011432  -0.010961   0.017406
   15  N  1 YY   -0.003581  -0.006235   0.022960  -0.000567   0.017406
   16  N  1 ZZ   -0.003440   0.004049   0.004049  -0.004049  -0.025374
   17  N  1 XY    0.000000  -0.014929  -0.004535  -0.019464   0.000000
   18  N  1 XZ    0.000000  -0.028624   0.003498  -0.025126   0.000000
   19  N  1 YZ    0.000000   0.012487  -0.031032  -0.018546   0.000000
   20  H  2  S    0.000197   0.316058  -0.024656   0.024656  -0.014449
   21  H  2  S    0.000805   0.112446  -0.069199   0.069199  -0.008282
   22  H  3  S    0.000197  -0.024656  -0.024656  -0.316058  -0.014449
   23  H  3  S    0.000805  -0.069199  -0.069199  -0.112446  -0.008282
   24  H  4  S    0.000197  -0.024656   0.316058   0.024656  -0.014449
   25  H  4  S    0.000805  -0.069199   0.112446   0.069199  -0.008282
 ...... END OF ORBITAL LOCALIZATION ......
 STEP CPU TIME =     0.00 TOTAL CPU TIME =          0.5 (      0.0 MIN)
 TOTAL WALL CLOCK TIME=          0.5 SECONDS, CPU UTILIZATION IS    88.68%
 NORMALIZED MULL. POP. FOR EACH LMO
   1   1.000 0.000 0.000 0.000
   2   0.689 0.338-0.014-0.014
   3   0.689-0.014-0.014 0.338
   4   0.689-0.014 0.338-0.014
   5   1.006-0.002-0.002-0.002

 ATOMS ARE ASSIGNED TO THE LMOS BASED ON THEIR MULLIKEN POPULATION.
 (MULLIKEN POP. THRESHOLD(VMTOL)=0.150 WAS USED)
 ORBITAL   1 BELONGS TO ATOM(S)   1
 ORBITAL   2 BELONGS TO ATOM(S)   1  2
 ORBITAL   3 BELONGS TO ATOM(S)   1  4
 ORBITAL   4 BELONGS TO ATOM(S)   1  3
 ORBITAL   5 BELONGS TO ATOM(S)   1

  LCD DIPOLES 

 LMO    XP        YP        ZP        MUX       MUY       MUZ     TOTAL
   1 -0.00000  -0.00000  -0.11883   0.00000   0.00000  -0.00124   0.00124
   2 -0.96503   0.42097   0.31613   0.83931  -0.36613  -0.50794   1.04714
   3  0.11794  -1.04623   0.31613  -0.10258   0.90993  -0.50794   1.04714
   4  0.84709   0.62525   0.31613  -0.73674  -0.54380  -0.50794   1.04714
   5  0.00000   0.00000  -0.78823  -0.00000  -0.00000   3.40164   3.40164

     ------------------------------
     CPHF RESPONSE SOLUTION OPTIONS
     ------------------------------
     POLAR  =       F     NWORD  =       0
     CPHF   =AO      

     --------------------------------------------
     PARTIAL TWO ELECTRON INTEGRAL TRANSFORMATION
     --------------------------------------------

 NUMBER OF CORE MOLECULAR ORBITALS     =    0
 NUMBER OF OCCUPIED MOLECULAR ORBITALS =    5
 TOTAL NUMBER OF MOLECULAR ORBITALS    =   25
 TOTAL NUMBER OF ATOMIC ORBITALS       =   25
 THRESHOLD FOR KEEPING TRANSFORMED 2E- INTEGRALS = 1.000E-09
 AO INTEGRALS WILL BE CALCULATED IN DIRECT MODE...

 PLAN A: REQUIREMENTS FOR FULLY IN-MEMORY TRANSFORMATION:
 # OF WORDS AVAILABLE =            199999999
 # OF WORDS NEEDED    =               149330

 CHOOSING IN MEMORY PARTIAL TRANSFORMATION...
 DIRECT TRANSFORMATION SKIPS AO INTEGRAL STORAGE ON DISK.
 TOTAL NUMBER OF TRANSFORMED 2E- INTEGRALS KEPT =         7009
 ... END OF INTEGRAL TRANSFORMATION ...
 STEP CPU TIME =     0.02 TOTAL CPU TIME =          0.5 (      0.0 MIN)
 TOTAL WALL CLOCK TIME=          0.6 SECONDS, CPU UTILIZATION IS    89.09%

     -------------------------------------------
     COUPLED-PERTURBED CLOSED SHELL HARTREE-FOCK
     -------------------------------------------
 THE CPHF HAS     100 INDEPENDENT ORBITAL ROTATIONS.
 CHOOSING OUT OF MEMORY CPHF ALGORITHM,
 -A- WILL BE FORMED IN    1 SLICES OF    100 COLUMNS.
         -B- WILL USE      2250 WORDS,
 -A- AND -U- WILL USE     42256 WORDS,
            THERE ARE 199999999 WORDS AVAILABLE.
 IN MEMORY FORMATION OF -A- WOULD REQUIRE         0 WORDS
        TIME FOR   -B-  =        0.000
        TIME FOR   -A-  =        0.000
 BICONJUGATE GRADIENT SOLVER     CONV. TOLERANCE=1.00E-07
 ITER   1 IMPROVED    3 RESPONSES, MAX RESIDUE=  1.3548979E-02
 ITER   2 IMPROVED    3 RESPONSES, MAX RESIDUE=  2.9160593E-03
 ITER   3 IMPROVED    3 RESPONSES, MAX RESIDUE=  2.1358562E-04
 ITER   4 IMPROVED    3 RESPONSES, MAX RESIDUE=  6.1778974E-06
 ITER   5 IMPROVED    3 RESPONSES, MAX RESIDUE=  3.4014353E-07
 ITER   6 IMPROVED    2 RESPONSES, MAX RESIDUE=  2.6394287E-08
        TIME FOR  -U-   =        0.000
 SOLVING FOR ALL   3 UNIQUE RESPONSES TOOK   17 ITERATIONS.
 CONJUGATE GRADIENT SOLVER MADE  19 READS OF THE EXTERNALLY STORED -A-

          -----------------------------------
           LOCALIZED ALPHA POLARIZABILITIES 
                 IN ANGSTROMS**3            
          -----------------------------------

           CORE ALPHA POLARIZABILITY TENSOR 
                      UX             UY             UZ
           UX     0.000233539   -0.000000087   -0.000000000
           UY    -0.000000001    0.000236847    0.000000000
           UZ    -0.000000000   -0.000000000    0.000257164

           MEAN ALPHA POLARIZABILITY =     0.000242517


  LMO ALPHA POLARIZABILITY TENSOR FOR BOND BETWEEN ATOM  1 AND ATOM  2
                      UX             UY             UZ
           UX     0.525588534   -0.177267016   -0.192779545
           UY    -0.177293777    0.196583994    0.084102632
           UZ    -0.184038763    0.080277651    0.167937605

           MEAN ALPHA POLARIZABILITY =     0.296703378


  LMO ALPHA POLARIZABILITY TENSOR FOR BOND BETWEEN ATOM  1 AND ATOM  4
                      UX             UY             UZ
           UX     0.125296259   -0.053845291    0.023562188
           UY    -0.053848443    0.596889220   -0.208981927
           UZ     0.022496896   -0.199521069    0.167937605

           MEAN ALPHA POLARIZABILITY =     0.296707695


  LMO ALPHA POLARIZABILITY TENSOR FOR BOND BETWEEN ATOM  1 AND ATOM  3
                      UX             UY             UZ
           UX     0.432328746    0.231107125    0.169217357
           UY     0.231103385    0.289829811    0.124879295
           UZ     0.161541867    0.119243418    0.167937605

           MEAN ALPHA POLARIZABILITY =     0.296698721


  LMO ALPHA POLARIZABILITY TENSOR FOR CORE OR LONE PAIR ON ATOM  1
                      UX             UY             UZ
           UX     0.254783573    0.000001018   -0.000000000
           UY     0.000018432    0.254766637   -0.000000000
           UZ    -0.000000000   -0.000000000    0.886463364

           MEAN ALPHA POLARIZABILITY =     0.465337858


               -----------------------------------
                TOTAL ALPHA POLARIZABILITY TENSOR 
               -----------------------------------
                      UX             UY             UZ
           UX     1.338230651   -0.000004251   -0.000000000
           UY    -0.000020405    1.338306509    0.000000000
           UZ    -0.000000000    0.000000000    1.390533343

           MEAN ALPHA POLARIZABILITY =     1.355690168


          -----------------------------------------------
           LOCALIZED ALPHA POLARIZABILITY TENSORS FOR 
           LONE PAIRS AND BONDS PROJECTED ONTO THE Z-AXIS 
          -----------------------------------------------


  LMO ALPHA POLARIZABILITY TENSOR FOR BOND BETWEEN ATOM  1 AND ATOM  2
                      UX             UY             UZ
           UX     0.119240579   -0.000006143    0.000034074
           UY    -0.000006830    0.086255052    0.002282182
           UZ     0.000005142    0.011823232    0.684614502

           MEAN ALPHA POLARIZABILITY =     0.296703378


  LMO ALPHA POLARIZABILITY TENSOR FOR BOND BETWEEN ATOM  1 AND ATOM  4
                      UX             UY             UZ
           UX     0.119226112   -0.000003954    0.000001107
           UY    -0.000003979    0.086265410    0.002275628
           UZ    -0.000002279    0.011796273    0.684631562

           MEAN ALPHA POLARIZABILITY =     0.296707695


  LMO ALPHA POLARIZABILITY TENSOR FOR BOND BETWEEN ATOM  1 AND ATOM  3
                      UX             UY             UZ
           UX     0.119240230    0.000019963    0.000001763
           UY    -0.000000911    0.086259551    0.002289145
           UZ    -0.000010263    0.011811523    0.684596381

           MEAN ALPHA POLARIZABILITY =     0.296698721


  LMO ALPHA POLARIZABILITY TENSOR FOR CORE OR LONE PAIR ON ATOM  1
                      UX             UY             UZ
           UX     0.254783573    0.000001018   -0.000000000
           UY     0.000018432    0.254766637   -0.000000000
           UZ    -0.000000000   -0.000000000    0.886463364

           MEAN ALPHA POLARIZABILITY =     0.465337858
 .... DONE WITH STATIC POLARIZABILITY ....
 STEP CPU TIME =     0.00 TOTAL CPU TIME =          0.5 (      0.0 MIN)
 TOTAL WALL CLOCK TIME=          0.6 SECONDS, CPU UTILIZATION IS    89.09%
 USING   GMRES    SOLVER FOR LINEAR SYSTEM OF SIZE       100

 A TOTAL OF  12 IMAGINARY FREQUENCY POLARIZABILITIES ARE TO BE FOUND
 ALLOCATING MEMORY FOR GMRES SOLVER
 CALCULATING H2*H1 DIAGONAL
 WIDTH=                  100 NROT=                  100

 COMPUTING DYNAMIC POLARIZABILTY FOR IMAGINARY FREQUENCY   0.0027916I (A.U.)
 GMRES CONVERGED IN                    47 ITERATIONS
 GMRES CONVERGED IN                    46 ITERATIONS
 GMRES CONVERGED IN                    48 ITERATIONS

          -----------------------------------
           LOCALIZED ALPHA POLARIZABILITIES 
                 IN ANGSTROMS**3            
          -----------------------------------

           CORE ALPHA POLARIZABILITY TENSOR 
                      UX             UY             UZ
           UX     0.000232545   -0.000000000    0.000000000
           UY     0.000000000    0.000232545   -0.000000000
           UZ    -0.000000000    0.000000000    0.000259276

           MEAN ALPHA POLARIZABILITY =     0.000241455


  LMO ALPHA POLARIZABILITY TENSOR FOR BOND BETWEEN ATOM  1 AND ATOM  2
                      UX             UY             UZ
           UX     0.525586563   -0.177265598   -0.192785185
           UY    -0.177265598    0.196553202    0.084098017
           UZ    -0.184045887    0.080285702    0.167940855

           MEAN ALPHA POLARIZABILITY =     0.296693540


  LMO ALPHA POLARIZABILITY TENSOR FOR BOND BETWEEN ATOM  1 AND ATOM  4
                      UX             UY             UZ
           UX     0.125295031   -0.053842826    0.023561574
           UY    -0.053842826    0.596844735   -0.209005876
           UZ     0.022493485   -0.199531264    0.167940855

           MEAN ALPHA POLARIZABILITY =     0.296693540


  LMO ALPHA POLARIZABILITY TENSOR FOR BOND BETWEEN ATOM  1 AND ATOM  3
                      UX             UY             UZ
           UX     0.432328054    0.231108424    0.169223612
           UY     0.231108424    0.289811711    0.124907860
           UZ     0.161552401    0.119245562    0.167940856

           MEAN ALPHA POLARIZABILITY =     0.296693540


  LMO ALPHA POLARIZABILITY TENSOR FOR CORE OR LONE PAIR ON ATOM  1
                      UX             UY             UZ
           UX     0.254779993   -0.000000000   -0.000000000
           UY    -0.000000000    0.254779993   -0.000000000
           UZ    -0.000000000   -0.000000000    0.886360497

           MEAN ALPHA POLARIZABILITY =     0.465306828


               -----------------------------------
                TOTAL ALPHA POLARIZABILITY TENSOR 
               -----------------------------------
                      UX             UY             UZ
           UX     1.338222186   -0.000000000   -0.000000000
           UY    -0.000000000    1.338222186    0.000000000
           UZ    -0.000000000    0.000000000    1.390442339

           MEAN ALPHA POLARIZABILITY =     1.355628904

 COMPUTING DYNAMIC POLARIZABILTY FOR IMAGINARY FREQUENCY   0.0151066I (A.U.)
 GMRES CONVERGED IN                    14 ITERATIONS
 GMRES CONVERGED IN                    14 ITERATIONS
 GMRES CONVERGED IN                    14 ITERATIONS

          -----------------------------------
           LOCALIZED ALPHA POLARIZABILITIES 
                 IN ANGSTROMS**3            
          -----------------------------------

           CORE ALPHA POLARIZABILITY TENSOR 
                      UX             UY             UZ
           UX     0.000232531   -0.000000000    0.000000000
           UY     0.000000000    0.000232531   -0.000000000
           UZ    -0.000000000    0.000000000    0.000258939

           MEAN ALPHA POLARIZABILITY =     0.000241334


  LMO ALPHA POLARIZABILITY TENSOR FOR BOND BETWEEN ATOM  1 AND ATOM  2
                      UX             UY             UZ
           UX     0.525283377   -0.177136322   -0.192648726
           UY    -0.177136322    0.196489974    0.084038489
           UZ    -0.183819665    0.080187018    0.167824722

           MEAN ALPHA POLARIZABILITY =     0.296532691


  LMO ALPHA POLARIZABILITY TENSOR FOR BOND BETWEEN ATOM  1 AND ATOM  4
                      UX             UY             UZ
           UX     0.125283770   -0.053803559    0.023544896
           UY    -0.053803559    0.596489580   -0.208857935
           UZ     0.022465837   -0.199286008    0.167824722

           MEAN ALPHA POLARIZABILITY =     0.296532691


  LMO ALPHA POLARIZABILITY TENSOR FOR BOND BETWEEN ATOM  1 AND ATOM  3
                      UX             UY             UZ
           UX     0.432092879    0.230939881    0.169103830
           UY     0.230939881    0.289680471    0.124819446
           UZ     0.161353827    0.119098990    0.167824722

           MEAN ALPHA POLARIZABILITY =     0.296532691


  LMO ALPHA POLARIZABILITY TENSOR FOR CORE OR LONE PAIR ON ATOM  1
                      UX             UY             UZ
           UX     0.254592003   -0.000000000   -0.000000000
           UY    -0.000000000    0.254592003   -0.000000000
           UZ    -0.000000000   -0.000000000    0.884658342

           MEAN ALPHA POLARIZABILITY =     0.464614116


               -----------------------------------
                TOTAL ALPHA POLARIZABILITY TENSOR 
               -----------------------------------
                      UX             UY             UZ
           UX     1.337484559   -0.000000000   -0.000000000
           UY    -0.000000000    1.337484559    0.000000000
           UZ    -0.000000000    0.000000000    1.388391447

           MEAN ALPHA POLARIZABILITY =     1.354453522

 COMPUTING DYNAMIC POLARIZABILTY FOR IMAGINARY FREQUENCY   0.0390017I (A.U.)
 GMRES CONVERGED IN                    15 ITERATIONS
 GMRES CONVERGED IN                    16 ITERATIONS
 GMRES CONVERGED IN                    15 ITERATIONS

          -----------------------------------
           LOCALIZED ALPHA POLARIZABILITIES 
                 IN ANGSTROMS**3            
          -----------------------------------

           CORE ALPHA POLARIZABILITY TENSOR 
                      UX             UY             UZ
           UX     0.000232448   -0.000000000    0.000000000
           UY     0.000000000    0.000232448   -0.000000000
           UZ    -0.000000000    0.000000000    0.000256999

           MEAN ALPHA POLARIZABILITY =     0.000240632


  LMO ALPHA POLARIZABILITY TENSOR FOR BOND BETWEEN ATOM  1 AND ATOM  2
                      UX             UY             UZ
           UX     0.523513532   -0.176382189   -0.191852534
           UY    -0.176382189    0.196119920    0.083691169
           UZ    -0.182511295    0.079616273    0.167151657

           MEAN ALPHA POLARIZABILITY =     0.295595036


  LMO ALPHA POLARIZABILITY TENSOR FOR BOND BETWEEN ATOM  1 AND ATOM  4
                      UX             UY             UZ
           UX     0.125216866   -0.053574498    0.023447588
           UY    -0.053574498    0.594416585   -0.207994753
           UZ     0.022305933   -0.197867554    0.167151657

           MEAN ALPHA POLARIZABILITY =     0.295595036


  LMO ALPHA POLARIZABILITY TENSOR FOR BOND BETWEEN ATOM  1 AND ATOM  3
                      UX             UY             UZ
           UX     0.430719779    0.229956687    0.168404946
           UY     0.229956687    0.288913672    0.124303584
           UZ     0.160205362    0.118251282    0.167151657

           MEAN ALPHA POLARIZABILITY =     0.295595036


  LMO ALPHA POLARIZABILITY TENSOR FOR CORE OR LONE PAIR ON ATOM  1
                      UX             UY             UZ
           UX     0.253496874   -0.000000000   -0.000000000
           UY    -0.000000000    0.253496874   -0.000000000
           UZ    -0.000000000   -0.000000000    0.874838724

           MEAN ALPHA POLARIZABILITY =     0.460610824


               -----------------------------------
                TOTAL ALPHA POLARIZABILITY TENSOR 
               -----------------------------------
                      UX             UY             UZ
           UX     1.333179499   -0.000000000   -0.000000000
           UY    -0.000000000    1.333179499    0.000000000
           UZ    -0.000000000    0.000000000    1.376550695

           MEAN ALPHA POLARIZABILITY =     1.347636564

 COMPUTING DYNAMIC POLARIZABILTY FOR IMAGINARY FREQUENCY   0.0779961I (A.U.)
 GMRES CONVERGED IN                    16 ITERATIONS
 GMRES CONVERGED IN                    16 ITERATIONS
 GMRES CONVERGED IN                    16 ITERATIONS

          -----------------------------------
           LOCALIZED ALPHA POLARIZABILITIES 
                 IN ANGSTROMS**3            
          -----------------------------------

           CORE ALPHA POLARIZABILITY TENSOR 
                      UX             UY             UZ
           UX     0.000232156   -0.000000000    0.000000000
           UY     0.000000000    0.000232156   -0.000000000
           UZ    -0.000000000    0.000000000    0.000250620

           MEAN ALPHA POLARIZABILITY =     0.000238311


  LMO ALPHA POLARIZABILITY TENSOR FOR BOND BETWEEN ATOM  1 AND ATOM  2
                      UX             UY             UZ
           UX     0.517383046   -0.173776796   -0.189099760
           UY    -0.173776796    0.194825461    0.082490336
           UZ    -0.178132504    0.077706128    0.164881199

           MEAN ALPHA POLARIZABILITY =     0.292363235


  LMO ALPHA POLARIZABILITY TENSOR FOR BOND BETWEEN ATOM  1 AND ATOM  4
                      UX             UY             UZ
           UX     0.124969737   -0.052783133    0.023111153
           UY    -0.052783133    0.587238770   -0.205010364
           UZ     0.021770771   -0.193120338    0.164881199

           MEAN ALPHA POLARIZABILITY =     0.292363235


  LMO ALPHA POLARIZABILITY TENSOR FOR BOND BETWEEN ATOM  1 AND ATOM  3
                      UX             UY             UZ
           UX     0.425959977    0.226559930    0.165988607
           UY     0.226559930    0.286248530    0.122520028
           UZ     0.156361733    0.115414210    0.164881199

           MEAN ALPHA POLARIZABILITY =     0.292363235


  LMO ALPHA POLARIZABILITY TENSOR FOR CORE OR LONE PAIR ON ATOM  1
                      UX             UY             UZ
           UX     0.249733120   -0.000000000   -0.000000000
           UY    -0.000000000    0.249733120   -0.000000000
           UZ    -0.000000000   -0.000000000    0.842292310

           MEAN ALPHA POLARIZABILITY =     0.447252850


               -----------------------------------
                TOTAL ALPHA POLARIZABILITY TENSOR 
               -----------------------------------
                      UX             UY             UZ
           UX     1.318278038   -0.000000000   -0.000000000
           UY    -0.000000000    1.318278038    0.000000000
           UZ    -0.000000000    0.000000000    1.337186526

           MEAN ALPHA POLARIZABILITY =     1.324580867

 COMPUTING DYNAMIC POLARIZABILTY FOR IMAGINARY FREQUENCY   0.1386505I (A.U.)
 GMRES CONVERGED IN                    17 ITERATIONS
 GMRES CONVERGED IN                    16 ITERATIONS
 GMRES CONVERGED IN                    16 ITERATIONS

          -----------------------------------
           LOCALIZED ALPHA POLARIZABILITIES 
                 IN ANGSTROMS**3            
          -----------------------------------

           CORE ALPHA POLARIZABILITY TENSOR 
                      UX             UY             UZ
           UX     0.000231328   -0.000000000    0.000000000
           UY     0.000000000    0.000231328   -0.000000000
           UZ    -0.000000000    0.000000000    0.000235561

           MEAN ALPHA POLARIZABILITY =     0.000232739


  LMO ALPHA POLARIZABILITY TENSOR FOR BOND BETWEEN ATOM  1 AND ATOM  2
                      UX             UY             UZ
           UX     0.500660127   -0.166723232   -0.181631063
           UY    -0.166723232    0.191195087    0.079232292
           UZ    -0.167236662    0.072953072    0.159101885

           MEAN ALPHA POLARIZABILITY =     0.283652366


  LMO ALPHA POLARIZABILITY TENSOR FOR BOND BETWEEN ATOM  1 AND ATOM  4
                      UX             UY             UZ
           UX     0.124174792   -0.050640677    0.022198354
           UY    -0.050640677    0.567680422   -0.196913261
           UZ     0.020439117   -0.181307734    0.159101885

           MEAN ALPHA POLARIZABILITY =     0.283652366


  LMO ALPHA POLARIZABILITY TENSOR FOR BOND BETWEEN ATOM  1 AND ATOM  3
                      UX             UY             UZ
           UX     0.412947901    0.217363909    0.159432710
           UY     0.217363909    0.278907312    0.117680969
           UZ     0.146797545    0.108354662    0.159101885

           MEAN ALPHA POLARIZABILITY =     0.283652366


  LMO ALPHA POLARIZABILITY TENSOR FOR CORE OR LONE PAIR ON ATOM  1
                      UX             UY             UZ
           UX     0.239695880   -0.000000000   -0.000000000
           UY    -0.000000000    0.239695880   -0.000000000
           UZ    -0.000000000   -0.000000000    0.763593277

           MEAN ALPHA POLARIZABILITY =     0.414328345


               -----------------------------------
                TOTAL ALPHA POLARIZABILITY TENSOR 
               -----------------------------------
                      UX             UY             UZ
           UX     1.277710029   -0.000000000   -0.000000000
           UY    -0.000000000    1.277710029    0.000000000
           UZ    -0.000000000    0.000000000    1.241134494

           MEAN ALPHA POLARIZABILITY =     1.265518184

 COMPUTING DYNAMIC POLARIZABILTY FOR IMAGINARY FREQUENCY   0.2332227I (A.U.)
 GMRES CONVERGED IN                    16 ITERATIONS
 GMRES CONVERGED IN                    16 ITERATIONS
 GMRES CONVERGED IN                    16 ITERATIONS

          -----------------------------------
           LOCALIZED ALPHA POLARIZABILITIES 
                 IN ANGSTROMS**3            
          -----------------------------------

           CORE ALPHA POLARIZABILITY TENSOR 
                      UX             UY             UZ
           UX     0.000229269   -0.000000000    0.000000000
           UY     0.000000000    0.000229269   -0.000000000
           UZ    -0.000000000    0.000000000    0.000210252

           MEAN ALPHA POLARIZABILITY =     0.000222930


  LMO ALPHA POLARIZABILITY TENSOR FOR BOND BETWEEN ATOM  1 AND ATOM  2
                      UX             UY             UZ
           UX     0.461655476   -0.150572205   -0.164441218
           UY    -0.150572205    0.182169330    0.071733626
           UZ    -0.146125050    0.063743627    0.147283336

           MEAN ALPHA POLARIZABILITY =     0.263702714


  LMO ALPHA POLARIZABILITY TENSOR FOR BOND BETWEEN ATOM  1 AND ATOM  4
                      UX             UY             UZ
           UX     0.121641511   -0.045734948    0.020097467
           UY    -0.045734948    0.522183294   -0.178277085
           UZ     0.017858925   -0.158419819    0.147283336

           MEAN ALPHA POLARIZABILITY =     0.263702714


  LMO ALPHA POLARIZABILITY TENSOR FOR BOND BETWEEN ATOM  1 AND ATOM  3
                      UX             UY             UZ
           UX     0.382440221    0.196307154    0.144343751
           UY     0.196307154    0.261384584    0.106543460
           UZ     0.128266125    0.094676192    0.147283336

           MEAN ALPHA POLARIZABILITY =     0.263702713


  LMO ALPHA POLARIZABILITY TENSOR FOR CORE OR LONE PAIR ON ATOM  1
                      UX             UY             UZ
           UX     0.217531975   -0.000000000   -0.000000000
           UY    -0.000000000    0.217531975   -0.000000000
           UZ    -0.000000000   -0.000000000    0.621926681

           MEAN ALPHA POLARIZABILITY =     0.352330210


               -----------------------------------
                TOTAL ALPHA POLARIZABILITY TENSOR 
               -----------------------------------
                      UX             UY             UZ
           UX     1.183498451   -0.000000000   -0.000000000
           UY    -0.000000000    1.183498451    0.000000000
           UZ    -0.000000000    0.000000000    1.063986940

           MEAN ALPHA POLARIZABILITY =     1.143661281

 COMPUTING DYNAMIC POLARIZABILTY FOR IMAGINARY FREQUENCY   0.3858973I (A.U.)
 GMRES CONVERGED IN                    16 ITERATIONS
 GMRES CONVERGED IN                    16 ITERATIONS
 GMRES CONVERGED IN                    15 ITERATIONS

          -----------------------------------
           LOCALIZED ALPHA POLARIZABILITIES 
                 IN ANGSTROMS**3            
          -----------------------------------

           CORE ALPHA POLARIZABILITY TENSOR 
                      UX             UY             UZ
           UX     0.000225103   -0.000000000    0.000000000
           UY     0.000000000    0.000225103   -0.000000000
           UZ    -0.000000000    0.000000000    0.000183572

           MEAN ALPHA POLARIZABILITY =     0.000211259


  LMO ALPHA POLARIZABILITY TENSOR FOR BOND BETWEEN ATOM  1 AND ATOM  2
                      UX             UY             UZ
           UX     0.384874002   -0.119980093   -0.131555475
           UY    -0.119980093    0.162171720    0.057387991
           UZ    -0.114095039    0.049771285    0.127418343

           MEAN ALPHA POLARIZABILITY =     0.224821355


  LMO ALPHA POLARIZABILITY TENSOR FOR BOND BETWEEN ATOM  1 AND ATOM  4
                      UX             UY             UZ
           UX     0.113941482   -0.036442870    0.016078279
           UY    -0.036442870    0.433104240   -0.142624379
           UZ     0.013944322   -0.123694844    0.127418343

           MEAN ALPHA POLARIZABILITY =     0.224821355


  LMO ALPHA POLARIZABILITY TENSOR FOR BOND BETWEEN ATOM  1 AND ATOM  3
                      UX             UY             UZ
           UX     0.321753099    0.156422963    0.115477196
           UY     0.156422963    0.225292623    0.085236388
           UZ     0.100150717    0.073923559    0.127418343

           MEAN ALPHA POLARIZABILITY =     0.224821355


  LMO ALPHA POLARIZABILITY TENSOR FOR CORE OR LONE PAIR ON ATOM  1
                      UX             UY             UZ
           UX     0.178461759   -0.000000000   -0.000000000
           UY    -0.000000000    0.178461759   -0.000000000
           UZ    -0.000000000   -0.000000000    0.440257641

           MEAN ALPHA POLARIZABILITY =     0.265727053


               -----------------------------------
                TOTAL ALPHA POLARIZABILITY TENSOR 
               -----------------------------------
                      UX             UY             UZ
           UX     0.999255444   -0.000000000   -0.000000000
           UY    -0.000000000    0.999255444    0.000000000
           UZ    -0.000000000    0.000000000    0.822696241

           MEAN ALPHA POLARIZABILITY =     0.940402377

 COMPUTING DYNAMIC POLARIZABILTY FOR IMAGINARY FREQUENCY   0.6491140I (A.U.)
 GMRES CONVERGED IN                    14 ITERATIONS
 GMRES CONVERGED IN                    14 ITERATIONS
 GMRES CONVERGED IN                    14 ITERATIONS

          -----------------------------------
           LOCALIZED ALPHA POLARIZABILITIES 
                 IN ANGSTROMS**3            
          -----------------------------------

           CORE ALPHA POLARIZABILITY TENSOR 
                      UX             UY             UZ
           UX     0.000220052   -0.000000000    0.000000000
           UY     0.000000000    0.000220052   -0.000000000
           UZ     0.000000000    0.000000000    0.000170332

           MEAN ALPHA POLARIZABILITY =     0.000203479


  LMO ALPHA POLARIZABILITY TENSOR FOR BOND BETWEEN ATOM  1 AND ATOM  2
                      UX             UY             UZ
           UX     0.266930963   -0.076012274   -0.083643011
           UY    -0.076012274    0.125840000    0.036487302
           UZ    -0.074189338    0.032363359    0.098911490

           MEAN ALPHA POLARIZABILITY =     0.163894151


  LMO ALPHA POLARIZABILITY TENSOR FOR BOND BETWEEN ATOM  1 AND ATOM  4
                      UX             UY             UZ
           UX     0.095284180   -0.023088042    0.010222575
           UY    -0.023088042    0.297486783   -0.090680623
           UZ     0.009067178   -0.080431530    0.098911490

           MEAN ALPHA POLARIZABILITY =     0.163894151


  LMO ALPHA POLARIZABILITY TENSOR FOR BOND BETWEEN ATOM  1 AND ATOM  3
                      UX             UY             UZ
           UX     0.226941301    0.099100316    0.073420436
           UY     0.099100316    0.165829662    0.054193321
           UZ     0.065122160    0.048068172    0.098911490

           MEAN ALPHA POLARIZABILITY =     0.163894151


  LMO ALPHA POLARIZABILITY TENSOR FOR CORE OR LONE PAIR ON ATOM  1
                      UX             UY             UZ
           UX     0.127470046   -0.000000000   -0.000000000
           UY    -0.000000000    0.127470046   -0.000000000
           UZ    -0.000000000   -0.000000000    0.272967378

           MEAN ALPHA POLARIZABILITY =     0.175969157


               -----------------------------------
                TOTAL ALPHA POLARIZABILITY TENSOR 
               -----------------------------------
                      UX             UY             UZ
           UX     0.716846542   -0.000000000   -0.000000000
           UY    -0.000000000    0.716846542    0.000000000
           UZ    -0.000000000    0.000000000    0.569872182

           MEAN ALPHA POLARIZABILITY =     0.667855089

 COMPUTING DYNAMIC POLARIZABILTY FOR IMAGINARY FREQUENCY   1.1539038I (A.U.)
 GMRES CONVERGED IN                    13 ITERATIONS
 GMRES CONVERGED IN                    13 ITERATIONS
 GMRES CONVERGED IN                    13 ITERATIONS

          -----------------------------------
           LOCALIZED ALPHA POLARIZABILITIES 
                 IN ANGSTROMS**3            
          -----------------------------------

           CORE ALPHA POLARIZABILITY TENSOR 
                      UX             UY             UZ
           UX     0.000221060   -0.000000000   -0.000000000
           UY     0.000000000    0.000221060   -0.000000000
           UZ     0.000000000    0.000000000    0.000174612

           MEAN ALPHA POLARIZABILITY =     0.000205578


  LMO ALPHA POLARIZABILITY TENSOR FOR BOND BETWEEN ATOM  1 AND ATOM  2
                      UX             UY             UZ
           UX     0.139539810   -0.033083294   -0.036342208
           UY    -0.033083294    0.078131914    0.015853436
           UZ    -0.034342586    0.014981148    0.064494407

           MEAN ALPHA POLARIZABILITY =     0.094055377


  LMO ALPHA POLARIZABILITY TENSOR FOR BOND BETWEEN ATOM  1 AND ATOM  4
                      UX             UY             UZ
           UX     0.064832916   -0.010048752    0.004441626
           UY    -0.010048752    0.152838808   -0.039399993
           UZ     0.004197238   -0.037232126    0.064494407

           MEAN ALPHA POLARIZABILITY =     0.094055377


  LMO ALPHA POLARIZABILITY TENSOR FOR BOND BETWEEN ATOM  1 AND ATOM  3
                      UX             UY             UZ
           UX     0.122134861    0.043132045    0.031900582
           UY     0.043132045    0.095536863    0.023546557
           UZ     0.030145348    0.022250978    0.064494407

           MEAN ALPHA POLARIZABILITY =     0.094055377


  LMO ALPHA POLARIZABILITY TENSOR FOR CORE OR LONE PAIR ON ATOM  1
                      UX             UY             UZ
           UX     0.077484649   -0.000000000   -0.000000000
           UY    -0.000000000    0.077484649   -0.000000000
           UZ    -0.000000000   -0.000000000    0.148092934

           MEAN ALPHA POLARIZABILITY =     0.101020744


               -----------------------------------
                TOTAL ALPHA POLARIZABILITY TENSOR 
               -----------------------------------
                      UX             UY             UZ
           UX     0.404213295    0.000000000   -0.000000000
           UY     0.000000000    0.404213295    0.000000000
           UZ    -0.000000000    0.000000000    0.341750767

           MEAN ALPHA POLARIZABILITY =     0.383392452

 COMPUTING DYNAMIC POLARIZABILTY FOR IMAGINARY FREQUENCY   2.3075922I (A.U.)
 GMRES CONVERGED IN                    10 ITERATIONS
 GMRES CONVERGED IN                    10 ITERATIONS
 GMRES CONVERGED IN                    10 ITERATIONS

          -----------------------------------
           LOCALIZED ALPHA POLARIZABILITIES 
                 IN ANGSTROMS**3            
          -----------------------------------

           CORE ALPHA POLARIZABILITY TENSOR 
                      UX             UY             UZ
           UX     0.000235724    0.000000000   -0.000000000
           UY    -0.000000000    0.000235724    0.000000000
           UZ     0.000000000   -0.000000000    0.000193497

           MEAN ALPHA POLARIZABILITY =     0.000221648


  LMO ALPHA POLARIZABILITY TENSOR FOR BOND BETWEEN ATOM  1 AND ATOM  2
                      UX             UY             UZ
           UX     0.049211318   -0.008038812   -0.008598160
           UY    -0.008038812    0.034289995    0.003750746
           UZ    -0.008762247    0.003822325    0.030665722

           MEAN ALPHA POLARIZABILITY =     0.038055679


  LMO ALPHA POLARIZABILITY TENSOR FOR BOND BETWEEN ATOM  1 AND ATOM  4
                      UX             UY             UZ
           UX     0.031058511   -0.002441717    0.001050839
           UY    -0.002441717    0.052442803   -0.009321598
           UZ     0.001070893   -0.009499491    0.030665722

           MEAN ALPHA POLARIZABILITY =     0.038055679


  LMO ALPHA POLARIZABILITY TENSOR FOR BOND BETWEEN ATOM  1 AND ATOM  3
                      UX             UY             UZ
           UX     0.044982141    0.010480528    0.007547321
           UY     0.010480528    0.038519172    0.005570852
           UZ     0.007691354    0.005677166    0.030665722

           MEAN ALPHA POLARIZABILITY =     0.038055679


  LMO ALPHA POLARIZABILITY TENSOR FOR CORE OR LONE PAIR ON ATOM  1
                      UX             UY             UZ
           UX     0.034766060   -0.000000000   -0.000000000
           UY    -0.000000000    0.034766060   -0.000000000
           UZ    -0.000000000   -0.000000000    0.060116010

           MEAN ALPHA POLARIZABILITY =     0.043216043


               -----------------------------------
                TOTAL ALPHA POLARIZABILITY TENSOR 
               -----------------------------------
                      UX             UY             UZ
           UX     0.160253754    0.000000000    0.000000000
           UY     0.000000000    0.160253754   -0.000000000
           UZ     0.000000000   -0.000000000    0.152306674

           MEAN ALPHA POLARIZABILITY =     0.157604727

 COMPUTING DYNAMIC POLARIZABILTY FOR IMAGINARY FREQUENCY   5.9576432I (A.U.)
 GMRES CONVERGED IN                     8 ITERATIONS
 GMRES CONVERGED IN                     8 ITERATIONS
 GMRES CONVERGED IN                     9 ITERATIONS

          -----------------------------------
           LOCALIZED ALPHA POLARIZABILITIES 
                 IN ANGSTROMS**3            
          -----------------------------------

           CORE ALPHA POLARIZABILITY TENSOR 
                      UX             UY             UZ
           UX     0.000233000    0.000000000   -0.000000000
           UY     0.000000000    0.000233000    0.000000000
           UZ     0.000000000   -0.000000000    0.000199454

           MEAN ALPHA POLARIZABILITY =     0.000221818


  LMO ALPHA POLARIZABILITY TENSOR FOR BOND BETWEEN ATOM  1 AND ATOM  2
                      UX             UY             UZ
           UX     0.008909075   -0.000882698   -0.000877574
           UY    -0.000882698    0.007270645    0.000382821
           UZ    -0.000954264    0.000416275    0.006913377

           MEAN ALPHA POLARIZABILITY =     0.007697699


  LMO ALPHA POLARIZABILITY TENSOR FOR BOND BETWEEN ATOM  1 AND ATOM  4
                      UX             UY             UZ
           UX     0.006915814   -0.000268112    0.000107254
           UY    -0.000268112    0.009263906   -0.000951411
           UZ     0.000116627   -0.001034554    0.006913377

           MEAN ALPHA POLARIZABILITY =     0.007697699


  LMO ALPHA POLARIZABILITY TENSOR FOR BOND BETWEEN ATOM  1 AND ATOM  3
                      UX             UY             UZ
           UX     0.008444692    0.001150810    0.000770319
           UY     0.001150810    0.007735028    0.000568591
           UZ     0.000837637    0.000618279    0.006913377

           MEAN ALPHA POLARIZABILITY =     0.007697699


  LMO ALPHA POLARIZABILITY TENSOR FOR CORE OR LONE PAIR ON ATOM  1
                      UX             UY             UZ
           UX     0.007375682   -0.000000000   -0.000000000
           UY    -0.000000000    0.007375682   -0.000000000
           UZ    -0.000000000   -0.000000000    0.012004005

           MEAN ALPHA POLARIZABILITY =     0.008918457


               -----------------------------------
                TOTAL ALPHA POLARIZABILITY TENSOR 
               -----------------------------------
                      UX             UY             UZ
           UX     0.031878262    0.000000000    0.000000000
           UY     0.000000000    0.031878262   -0.000000000
           UZ     0.000000000   -0.000000000    0.032943588

           MEAN ALPHA POLARIZABILITY =     0.032233371

 COMPUTING DYNAMIC POLARIZABILTY FOR IMAGINARY FREQUENCY  32.2390801I (A.U.)
 GMRES CONVERGED IN                     6 ITERATIONS
 GMRES CONVERGED IN                     6 ITERATIONS
 GMRES CONVERGED IN                     7 ITERATIONS

          -----------------------------------
           LOCALIZED ALPHA POLARIZABILITIES 
                 IN ANGSTROMS**3            
          -----------------------------------

           CORE ALPHA POLARIZABILITY TENSOR 
                      UX             UY             UZ
           UX     0.000052654    0.000000000   -0.000000000
           UY     0.000000000    0.000052654    0.000000000
           UZ     0.000000000   -0.000000000    0.000046093

           MEAN ALPHA POLARIZABILITY =     0.000050467


  LMO ALPHA POLARIZABILITY TENSOR FOR BOND BETWEEN ATOM  1 AND ATOM  2
                      UX             UY             UZ
           UX     0.000318819   -0.000025710   -0.000024518
           UY    -0.000025710    0.000271098    0.000010695
           UZ    -0.000027116    0.000011829    0.000262096

           MEAN ALPHA POLARIZABILITY =     0.000284004


  LMO ALPHA POLARIZABILITY TENSOR FOR BOND BETWEEN ATOM  1 AND ATOM  4
                      UX             UY             UZ
           UX     0.000260763   -0.000007809    0.000002996
           UY    -0.000007809    0.000329154   -0.000026581
           UZ     0.000003314   -0.000029398    0.000262096

           MEAN ALPHA POLARIZABILITY =     0.000284004


  LMO ALPHA POLARIZABILITY TENSOR FOR BOND BETWEEN ATOM  1 AND ATOM  3
                      UX             UY             UZ
           UX     0.000305293    0.000033519    0.000021521
           UY     0.000033519    0.000284624    0.000015885
           UZ     0.000023802    0.000017569    0.000262096

           MEAN ALPHA POLARIZABILITY =     0.000284004


  LMO ALPHA POLARIZABILITY TENSOR FOR CORE OR LONE PAIR ON ATOM  1
                      UX             UY             UZ
           UX     0.000273869    0.000000000   -0.000000000
           UY     0.000000000    0.000273869   -0.000000000
           UZ    -0.000000000   -0.000000000    0.000439972

           MEAN ALPHA POLARIZABILITY =     0.000329237


               -----------------------------------
                TOTAL ALPHA POLARIZABILITY TENSOR 
               -----------------------------------
                      UX             UY             UZ
           UX     0.001211398    0.000000000    0.000000000
           UY     0.000000000    0.001211398   -0.000000000
           UZ     0.000000000   -0.000000000    0.001272352

           MEAN ALPHA POLARIZABILITY =     0.001231716

 ...... DONE WITH CPHF CONTRIBUTIONS ......
 STEP CPU TIME =     0.02 TOTAL CPU TIME =          0.5 (      0.0 MIN)
 TOTAL WALL CLOCK TIME=          0.6 SECONDS, CPU UTILIZATION IS    89.47%

 RUNTYP=MAKEFP IS NOW GENERATING EXCHANGE REPULSION DATA
 RUNTYP=MAKEFP HAS JUST FINISHED DOING THAT.

 RUNTYP=MAKEFP IS NOW GENERATING SCREENING PARAMETERS.


     ---------------------------------------
     EFFECTIVE POTENTIAL SCREENING PARAMETER
              OPTIMIZATION PROGRAM
     ---------------------------------------
     AUTHORS: WALT STEVENS, MARK FREITAG, LYUDMILA SLIPCHENKO

 THE $DAMP INPUT DATA FOR THIS RUN IS:
 ISCCHG =     0
 THRSH  = 500.0
 MAXIT  =    30
 NMAIN  =     4
 INITIAL FIT WILL USE EXP. CH-CH  FORM WITH    FIXED LINEAR COEFICIENTS
  SECOND FIT WILL USE    GAUSSIAN FORM WITH    FIXED LINEAR COEFICIENTS

 THE CLASSICAL MULTIPOLE EXPANSION TO BE SCREENED IS

 CENTERS OF THE DISTRIBUTED MULTIPOLE EXPANSION, X,Y,Z
     N          0.00000   0.00000  -0.11908
     H         -1.59985   0.69790   0.55151
     H          1.40432   1.03656   0.55151
     H          0.19553  -1.73446   0.55151
     BO21      -0.79992   0.34895   0.21621
     BO31       0.70216   0.51828   0.21621
     BO41       0.09776  -0.86723   0.21621

 CHARGES             Q
     N         -7.32432
     H         -0.66879
     H         -0.66879
     H         -0.66879
     BO21      -0.22311
     BO31      -0.22311
     BO41      -0.22311

 DIPOLES             X         Y         Z
     N         -0.00000   0.00000   0.27364
     H         -0.04993   0.02178   0.01139
     H          0.04383   0.03235   0.01139
     H          0.00610  -0.05413   0.01139
     BO21       0.17368  -0.07576  -0.00381
     BO31      -0.15245  -0.11253  -0.00381
     BO41      -0.02123   0.18829  -0.00381

 QUADRUPOLES        XX        YY        ZZ        XY        XZ        YZ
     N         -4.36968  -4.36968  -5.85370  -0.00000   0.00000  -0.00000
     H         -0.34436  -0.34861  -0.34623  -0.00229  -0.00517   0.00225
     H         -0.34556  -0.34740  -0.34623   0.00299   0.00453   0.00335
     H         -0.34953  -0.34344  -0.34623  -0.00070   0.00063  -0.00560
     BO21      -0.05993  -0.07991  -0.09525  -0.01076  -0.00631   0.00275
     BO31      -0.06559  -0.07424  -0.09525   0.01403   0.00554   0.00409
     BO41      -0.08423  -0.05560  -0.09525  -0.00327   0.00077  -0.00684

 OCTUPOLES
     N          0.02309   0.06594   0.42694  -0.06594   0.11702
               -0.02309   0.11702   0.00000  -0.00000   0.00000
     H         -0.06370   0.03188   0.01270   0.00589  -0.00121
               -0.02289   0.00358  -0.02218   0.00968   0.00258
     H          0.05825   0.04563   0.01270   0.01047   0.00014
                0.01776   0.00222   0.01947   0.01437  -0.00337
     H          0.00918  -0.06685   0.01270  -0.02702   0.00462
                0.00140  -0.00225   0.00271  -0.02405   0.00078
     BO21       0.59919  -0.26312   0.03294  -0.08570   0.01215
                0.20043   0.01492   0.19711  -0.08598   0.00150
     BO31      -0.52695  -0.39007   0.03294  -0.12802   0.01294
               -0.17495   0.01414  -0.17302  -0.12771  -0.00195
     BO41      -0.07382   0.64868   0.03294   0.21823   0.01553
               -0.02391   0.01155  -0.02409   0.21369   0.00045


                         *****   WARNING   *****
 NO $DAMPGS CHARGE PENETRATION SCREENING INPUT WAS FOUND, CONTINUING...
   THIS INPUT GROUP LETS YOU ASSIGN EXACTLY EQUAL SCREENING EXPONENTS
   TO ANY SYMMETRY EQUIVALENT ATOMS AND BOND CENTERS, AND IT IS USUALLY
   A VERY GOOD IDEA TO ENTER THIS DATA.


 NUMBER OF OPTIMIZED PARAMETERS IS   7

 INITIAL VALUES OF SCREENING PARAMETERS ARE:
 NAME        COEF       EXP
 N          1.00000   2.00000
 H          1.00000   2.00000
 H          1.00000   2.00000
 H          1.00000   2.00000
 BO21       1.00000   4.00000
 BO31       1.00000   4.00000
 BO41       1.00000   4.00000

 QUANTUM ELECTROSTATIC POTENTIAL GRID IS GENERATED BY $PDC PTSEL=GEODESIC
 POINT SELECTION IS USING VDWSCL=  0.700
  MEMORY FOR PDCPTS:                307868
 GAVEZZOTTI RADII USED FOR CHARGE FITTING
          EFP CENTER      VDW RADIUS
          N               2.83 BOHR
          H               2.27 BOHR
          H               2.27 BOHR
          H               2.27 BOHR
 RADIUS FOR BOND MID-POINT BETWEEN ATOMS  2 AND  1
          BO21            2.55 BOHR
 RADIUS FOR BOND MID-POINT BETWEEN ATOMS  3 AND  1
          BO31            2.55 BOHR
 RADIUS FOR BOND MID-POINT BETWEEN ATOMS  4 AND  1
          BO41            2.55 BOHR
 {3,5+}NH,NK TEMPLATE USED, NH= 3 NK= 0
 NUMBER OF POINTS SELECTED FOR FITTING =    3419

  TO SIMULATE EVEN POINT DENSITY IN GEODES GRID
  TOTAL NUMBER OF POINTS WAS ARTIFICIALLY INCREASED
  TO      24415
 DAMPING COMPUTATION NEEDS       37784 WORDS
 PLUS       225650 WORDS

 ----- THE ELECTROSTATIC POTENTIAL GRID CONTAINS     3419 POINTS -----
 ----- THE QUANTUM POTENTIAL HAS BEEN GENERATED ON THE GRID -----
 ----- THE UNSCREENED CLASSICAL POTENTIAL GRID HAS BEEN GENERATED -----
 ELECTROSTATIC POTENTIAL CPU TIME: QUANTUM=     0.1, CLASSICAL=    0.00

 *** SINGLE EXPONENTIAL USED AS DAMPING FUNCTION ***
  CHARGE-CHARGE SCREENING WILL BE PERFORMED 

 FITTING SCREENED MULTIPOLE CLASSICAL POTENTIAL TO THE QUANTUM POTENTIAL...
  INITIAL ALPHAS ARE    2.000   2.000   2.000   2.000   4.000   4.000   4.000
 INITIAL CHI^2 =       3.30153548
 POWELL PROCEDURE, ITERATION      1 CHI^2 =       1.96329700
 POWELL PROCEDURE, ITERATION      2 CHI^2 =       1.92522677
 POWELL PROCEDURE, ITERATION      3 CHI^2 =       1.91017461
 POWELL PROCEDURE, ITERATION      4 CHI^2 =       1.90687339
 POWELL PROCEDURE, ITERATION      5 CHI^2 =       1.90678339
 POWELL PROCEDURE, ITERATION      6 CHI^2 =       1.90620114
 POWELL PROCEDURE, ITERATION      7 CHI^2 =       1.90618366
 POWELL PROCEDURE, ITERATION      8 CHI^2 =       1.90597984
 POWELL PROCEDURE, ITERATION      9 CHI^2 =       1.90226032
 POWELL PROCEDURE, ITERATION     10 CHI^2 =       1.90157929
 POWELL PROCEDURE, ITERATION     11 CHI^2 =       1.90126071
 POWELL PROCEDURE, ITERATION     12 CHI^2 =       1.90113592
 POWELL PROCEDURE, ITERATION     13 CHI^2 =       1.90112786
 POWELL PROCEDURE, ITERATION     14 CHI^2 =       1.90110333
 POWELL PROCEDURE, ITERATION     15 CHI^2 =       1.90105743
 POWELL PROCEDURE, ITERATION     16 CHI^2 =       1.90104067
 POWELL PROCEDURE, ITERATION     17 CHI^2 =       1.90103418
 POWELL PROCEDURE, ITERATION     18 CHI^2 =       1.90094551
 POWELL PROCEDURE, ITERATION     19 CHI^2 =       1.90068994
 POWELL PROCEDURE, ITERATION     20 CHI^2 =       1.89931679
 POWELL PROCEDURE, ITERATION     21 CHI^2 =       1.89905427
 POWELL PROCEDURE, ITERATION     22 CHI^2 =       1.89866196
 POWELL PROCEDURE, ITERATION     23 CHI^2 =       1.89858679
 POWELL PROCEDURE, ITERATION     24 CHI^2 =       1.89828809
 POWELL PROCEDURE, ITERATION     25 CHI^2 =       1.89825024
 POWELL PROCEDURE, ITERATION     26 CHI^2 =       1.89823495
 POWELL PROCEDURE, ITERATION     27 CHI^2 =       1.89822949
 POWELL PROCEDURE, ITERATION     28 CHI^2 =       1.89821898
 FUNCTION WAS EVALUATED   2326 TIMES
 POWELL MINIMIZATION PROCEDURE ALMOST CONVERGED IN    28 ITERATIONS
 ENDING VALUE OF CHI^2 IS      1.89821818
 OPTIMIZED NONLINEAR PARAMETERS ARE
    1.6244   2.7855   3.1106   3.0984   6.0539  10.0000  10.0000
 POWELL PROCEDURE REQUIRED     1.8 SECONDS

               ----- OPTIMIZED SCREENING PARAMETERS ----- 
 NAME          X        Y        Z               COEF                 ALPHA
 N          0.0000   0.0000  -0.1191         1.0000000000         1.6243524123
 H         -1.5998   0.6979   0.5515         1.0000000000         2.7855185726
 H          1.4043   1.0366   0.5515         1.0000000000         3.1105878084
 H          0.1955  -1.7345   0.5515         1.0000000000         3.0984094736
 BO21      -0.7999   0.3489   0.2162         1.0000000000         6.0538893929
 BO31       0.7022   0.5183   0.2162         1.0000000000        10.0000000000
 BO41       0.0978  -0.8672   0.2162         1.0000000000        10.0000000000

 STATISTICS FOR UNSCREENED MULTIPOLES
 ------------------------------------
 AVERAGE UNSIGNED ERROR        (      3419 PTS) = 5.163643E+00
 RMS DEVIATION                 (      3419 PTS) = 1.505895E+01
 RMS DEVIATION (ERR > THRSH/8) (        50 PTS) = 9.717882E+01
 RMS DEVIATION (ERR > THRSH/4) (        10 PTS) = 1.436319E+02
 RMS DEVIATION (ERR > THRSH/2) (         0 PTS) = 0.000000E+00
 RMS DEVIATION (ERR > THRSH)   (         0 PTS) = 0.000000E+00
 
 EFFECTIVE AV. UNSIGNED ERROR  (     24415 PTS) = 7.231003E-01
 EFFECTIVE RMS DEVIATION       (     24415 PTS) = 5.634576E+00


 STATISTICS FOR SCREENED MULTIPOLES
 ----------------------------------
 AVERAGE UNSIGNED ERROR        (      3419 PTS) = 1.513767E+00
 RMS DEVIATION                 (      3419 PTS) = 4.706029E+00
 RMS DEVIATION (ERR > THRSH/8) (         0 PTS) = 0.000000E+00
 RMS DEVIATION (ERR > THRSH/4) (         0 PTS) = 0.000000E+00
 RMS DEVIATION (ERR > THRSH/2) (         0 PTS) = 0.000000E+00
 RMS DEVIATION (ERR > THRSH)   (         0 PTS) = 0.000000E+00
 
 EFFECTIVE AV. UNSIGNED ERROR  (     24415 PTS) = 2.119832E-01
 EFFECTIVE RMS DEVIATION       (     24415 PTS) = 1.760845E+00


 GRID POINTS WITH ERRORS (QUANTUM - EITHER FIT) GREATER THAN  500.00 KCAL/MOL
   POINT  CENTER  DISTANCE   X     Y       Z    QUANTUM      DIFF      DIFF   
                  FROM ORIGIN                              SCREEN  NOSCREEN

 ..... DONE WITH CHARGE PENETRATION SCREENING .....
 STEP CPU TIME =     1.82 TOTAL CPU TIME =          2.3 (      0.0 MIN)
 TOTAL WALL CLOCK TIME=          2.4 SECONDS, CPU UTILIZATION IS    97.49%

 *** SINGLE GAUSSIAN USED AS DAMPING FUNCTION ***

 FITTING SCREENED MULTIPOLE CLASSICAL POTENTIAL TO THE QUANTUM POTENTIAL...
  INITIAL ALPHAS ARE    1.084   1.084   1.084   1.084   4.335   4.335   4.335
 INITIAL CHI^2 =       4.44056331
 POWELL PROCEDURE, ITERATION      1 CHI^2 =       2.40269496
 POWELL PROCEDURE, ITERATION      2 CHI^2 =       2.40198388
 FUNCTION WAS EVALUATED    227 TIMES
 POWELL MINIMIZATION PROCEDURE ALMOST CONVERGED IN     2 ITERATIONS
 ENDING VALUE OF CHI^2 IS      2.40197051
 OPTIMIZED NONLINEAR PARAMETERS ARE
    0.7607   1.0189   1.0572   1.0547  10.0882  10.0000  10.0000
 POWELL PROCEDURE REQUIRED     0.2 SECONDS

               ----- OPTIMIZED SCREENING PARAMETERS ----- 
 NAME          X        Y        Z               COEF                 ALPHA
 N          0.0000   0.0000  -0.1191         1.0000000000         0.7606520414
 H         -1.5998   0.6979   0.5515         1.0000000000         1.0188584867
 H          1.4043   1.0366   0.5515         1.0000000000         1.0572000851
 H          0.1955  -1.7345   0.5515         1.0000000000         1.0546961489
 BO21      -0.7999   0.3489   0.2162         1.0000000000        10.0882094335
 BO31       0.7022   0.5183   0.2162         1.0000000000        10.0000000000
 BO41       0.0978  -0.8672   0.2162         1.0000000000        10.0000000000

 STATISTICS FOR UNSCREENED MULTIPOLES
 ------------------------------------
 AVERAGE UNSIGNED ERROR        (      3419 PTS) = 5.163643E+00
 RMS DEVIATION                 (      3419 PTS) = 1.505895E+01
 RMS DEVIATION (ERR > THRSH/8) (        50 PTS) = 9.717882E+01
 RMS DEVIATION (ERR > THRSH/4) (        10 PTS) = 1.436319E+02
 RMS DEVIATION (ERR > THRSH/2) (         0 PTS) = 0.000000E+00
 RMS DEVIATION (ERR > THRSH)   (         0 PTS) = 0.000000E+00
 
 EFFECTIVE AV. UNSIGNED ERROR  (     24415 PTS) = 7.231003E-01
 EFFECTIVE RMS DEVIATION       (     24415 PTS) = 5.634576E+00


 STATISTICS FOR SCREENED MULTIPOLES
 ----------------------------------
 AVERAGE UNSIGNED ERROR        (      3419 PTS) = 2.054685E+00
 RMS DEVIATION                 (      3419 PTS) = 5.553469E+00
 RMS DEVIATION (ERR > THRSH/8) (         0 PTS) = 0.000000E+00
 RMS DEVIATION (ERR > THRSH/4) (         0 PTS) = 0.000000E+00
 RMS DEVIATION (ERR > THRSH/2) (         0 PTS) = 0.000000E+00
 RMS DEVIATION (ERR > THRSH)   (         0 PTS) = 0.000000E+00
 
 EFFECTIVE AV. UNSIGNED ERROR  (     24415 PTS) = 2.877316E-01
 EFFECTIVE RMS DEVIATION       (     24415 PTS) = 2.077930E+00


 GRID POINTS WITH ERRORS (QUANTUM - EITHER FIT) GREATER THAN  500.00 KCAL/MOL
   POINT  CENTER  DISTANCE   X     Y       Z    QUANTUM      DIFF      DIFF   
                  FROM ORIGIN                              SCREEN  NOSCREEN

 ..... DONE WITH CHARGE PENETRATION SCREENING .....
 STEP CPU TIME =     0.16 TOTAL CPU TIME =          2.5 (      0.0 MIN)
 TOTAL WALL CLOCK TIME=          2.6 SECONDS, CPU UTILIZATION IS    97.65%

 PROCESSING $STONE INPUT...
 THE NUMBER OF "BOUNDARY" CORE MOS IS  0
 THE NUMBER OF MOS WITH ZERO OCCUPATION NUMBER IS  0
  
  ****************************************
  MULTIPOLE EXPANSION FOR EVERY LMO AT ITS
  CENTROID USING ITS OWN ELECTRON DENSITY 
     - NANDUN THELLAMUREGE AND HUI LI -   
  ****************************************
  
 MULTIPOLE EXPANSION FOR LMO             1
 TOTAL ELECTRON CHARGE =     -2.0000000000
 MULTIPOLE EXPANSION FOR LMO             2
 TOTAL ELECTRON CHARGE =     -2.0000000000
 MULTIPOLE EXPANSION FOR LMO             3
 TOTAL ELECTRON CHARGE =     -2.0000000000
 MULTIPOLE EXPANSION FOR LMO             4
 TOTAL ELECTRON CHARGE =     -2.0000000000
 MULTIPOLE EXPANSION FOR LMO             5
 TOTAL ELECTRON CHARGE =     -2.0000000000
  
  DONE WITH LMO EXPANSION.
 STEP CPU TIME =     0.00 TOTAL CPU TIME =          2.5 (      0.0 MIN)
 TOTAL WALL CLOCK TIME=          2.6 SECONDS, CPU UTILIZATION IS    97.65%
              1601999  WORDS OF DYNAMIC MEMORY USED
 EXECUTION OF GAMESS TERMINATED NORMALLY Sat Dec 10 15:44:07 2022
 DDI: 263640 bytes (0.3 MB / 0 MWords) used by master data server.

 ----------------------------------------
 CPU timing information for all processes
 ========================================
 0: 2.421 + 0.73 = 2.494
 ----------------------------------------
Note: The following floating-point exceptions are signalling: IEEE_UNDERFLOW_FLAG IEEE_DENORMAL
 ddikick.x: exited gracefully.
unset echo
----- accounting info -----
Files used on the master node Lyudmilas-MacBook-Pro.local were:
-rwxr-xr-x@ 1 lyuda  staff       515 Dec 10 15:44 /Users/lyuda/gmsscr/makefp.F05*
-rw-r--r--  1 lyuda  staff    182624 Dec 10 15:44 /Users/lyuda/gmsscr/makefp.F09
-rw-r--r--  1 lyuda  staff  65536000 Dec 10 15:44 /Users/lyuda/gmsscr/makefp.F10
-rw-r--r--  1 lyuda  staff     80008 Dec 10 15:44 /Users/lyuda/gmsscr/makefp.F16
-rw-r--r--  1 lyuda  staff     80008 Dec 10 15:44 /Users/lyuda/gmsscr/makefp.F67
cp: No match.
ls: No match.
ls: No match.
ls: No match.
Sat Dec 10 15:44:10 EST 2022
2.483u 0.173s 0:05.80 45.6%	0+0k 0+0io 792pf+0w
